
     Program PWSCF v.7.0 starts on 10Jan2024 at 15: 9:39 

     This program is part of the open-source Quantum ESPRESSO suite
     for quantum simulation of materials; please cite
         "P. Giannozzi et al., J. Phys.:Condens. Matter 21 395502 (2009);
         "P. Giannozzi et al., J. Phys.:Condens. Matter 29 465901 (2017);
         "P. Giannozzi et al., J. Chem. Phys. 152 154105 (2020);
          URL http://www.quantum-espresso.org", 
     in publications or presentations arising from this work. More details at
     http://www.quantum-espresso.org/quote

     Parallel version (MPI), running on    24 processors

     MPI processes distributed on     1 nodes
     R & G space division:  proc/nbgrp/npool/nimage =      24
     111058 MiB available memory on the printing compute node when the environment starts
 
     Reading input from cri3-exp-soc_16x16x1.scf.in

     Current dimensions of program PWSCF are:
     Max number of different atomic species (ntypx) = 10
     Max number of k-points (npk) =  40000
     Max angular momentum in pseudopotentials (lmaxx) =  4

     Subspace diagonalization in iterative solution of the eigenvalue problem:
     one sub-group per band group will be used
     scalapack distributed-memory algorithm (size of sub-group:  4*  4 procs)

 
     Parallelization info
     --------------------
     sticks:   dense  smooth     PW     G-vecs:    dense   smooth      PW
     Min         174     174     46                17524    17524    2404
     Max         175     175     47                17533    17533    2411
     Sum        4177    4177   1111               420595   420595   57791
 
     Using Slab Decomposition
 


     bravais-lattice index     =            4
     lattice parameter (alat)  =      12.9767  a.u.
     unit-cell volume          =    3645.8815 (a.u.)^3
     number of atoms/cell      =            8
     number of atomic types    =            2
     number of electrons       =        70.00
     number of Kohn-Sham states=           84
     kinetic-energy cutoff     =      90.0000  Ry
     charge density cutoff     =     360.0000  Ry
     scf convergence threshold =      1.0E-13
     mixing beta               =       0.7000
     number of iterations used =            8  plain     mixing
     Exchange-correlation= PZ
                           (   1   1   0   0   0   0   0)
     Noncollinear calculation with spin-orbit


     celldm(1)=  12.976749  celldm(2)=   0.000000  celldm(3)=   1.926523
     celldm(4)=   0.000000  celldm(5)=   0.000000  celldm(6)=   0.000000

     crystal axes: (cart. coord. in units of alat)
               a(1) = (   1.000000   0.000000   0.000000 )  
               a(2) = (  -0.500000   0.866025   0.000000 )  
               a(3) = (   0.000000   0.000000   1.926523 )  

     reciprocal axes: (cart. coord. in units 2 pi/alat)
               b(1) = (  1.000000  0.577350  0.000000 )  
               b(2) = (  0.000000  1.154701  0.000000 )  
               b(3) = (  0.000000  0.000000  0.519070 )  


     PseudoPot. # 1 for Cr read from file:
     ./Cr_Alejandro.upf
     MD5 check sum: 19f8874af457815d5c8e16c7b8c57f71
     Pseudo is Norm-conserving + core correction, Zval = 14.0
     Generated using ONCVPSP code by D. R. Hamann
     Using radial grid of 1600 points, 10 beta functions with: 
                l(1) =   0
                l(2) =   0
                l(3) =   1
                l(4) =   1
                l(5) =   1
                l(6) =   1
                l(7) =   2
                l(8) =   2
                l(9) =   2
               l(10) =   2

     PseudoPot. # 2 for I  read from file:
     ./I_Alejandro.upf
     MD5 check sum: d0d4d45a39a9ecd37d4d9deb6bd296a3
     Pseudo is Norm-conserving + core correction, Zval =  7.0
     Generated using ONCVPSP code by D. R. Hamann
     Using radial grid of 1196 points, 10 beta functions with: 
                l(1) =   0
                l(2) =   0
                l(3) =   1
                l(4) =   1
                l(5) =   1
                l(6) =   1
                l(7) =   2
                l(8) =   2
                l(9) =   2
               l(10) =   2

     atomic species   valence    mass     pseudopotential
        Cr            14.00    51.99000     Cr( 1.00)
        I              7.00   126.90000     I ( 1.00)

      6 Sym. Ops. (no inversion) found ( 3 have fractional translation)


                                    s                        frac. trans.

      isym =  1     identity                                     

 Time Reversal            0
 cryst.   s( 1) = (     1          0          0      )
                  (     0          1          0      )
                  (     0          0          1      )

 cart.    s( 1) = (  1.0000000  0.0000000  0.0000000 )
                  (  0.0000000  1.0000000  0.0000000 )
                  (  0.0000000  0.0000000  1.0000000 )


      isym =  2     120 deg rotation - cryst. axis [0,0,1]       

 Time Reversal            0
 cryst.   s( 2) = (     0          1          0      )
                  (    -1         -1          0      )
                  (     0          0          1      )

 cart.    s( 2) = ( -0.5000000 -0.8660254  0.0000000 )
                  (  0.8660254 -0.5000000  0.0000000 )
                  (  0.0000000  0.0000000  1.0000000 )


      isym =  3     120 deg rotation - cryst. axis [0,0,-1]      

 Time Reversal            0
 cryst.   s( 3) = (    -1         -1          0      )
                  (     1          0          0      )
                  (     0          0          1      )

 cart.    s( 3) = ( -0.5000000  0.8660254  0.0000000 )
                  ( -0.8660254 -0.5000000  0.0000000 )
                  (  0.0000000  0.0000000  1.0000000 )


      isym =  4     inv. 180 deg rotation - cart. axis [0,1,0]   

 Time Reversal            1
 cryst.   s( 4) = (     1          0          0      )    f =( -0.3333333 )
                  (    -1         -1          0      )       (  0.3333333 )
                  (     0          0          1      )       (  0.0000000 )

 cart.    s( 4) = (  1.0000000  0.0000000  0.0000000 )    f =( -0.5000000 )
                  (  0.0000000 -1.0000000  0.0000000 )       (  0.2886751 )
                  (  0.0000000  0.0000000  1.0000000 )       (  0.0000000 )


      isym =  5     inv. 180 deg rotation - cryst. axis [1,-1,0] 

 Time Reversal            1
 cryst.   s( 5) = (     0          1          0      )    f =( -0.3333333 )
                  (     1          0          0      )       (  0.3333333 )
                  (     0          0          1      )       (  0.0000000 )

 cart.    s( 5) = ( -0.5000000  0.8660254  0.0000000 )    f =( -0.5000000 )
                  (  0.8660254  0.5000000  0.0000000 )       (  0.2886751 )
                  (  0.0000000  0.0000000  1.0000000 )       (  0.0000000 )


      isym =  6     inv. 180 deg rotation - cryst. axis [2,1,0]  

 Time Reversal            1
 cryst.   s( 6) = (    -1         -1          0      )    f =( -0.3333333 )
                  (     0          1          0      )       (  0.3333333 )
                  (     0          0          1      )       (  0.0000000 )

 cart.    s( 6) = ( -0.5000000 -0.8660254  0.0000000 )    f =( -0.5000000 )
                  ( -0.8660254  0.5000000  0.0000000 )       (  0.2886751 )
                  (  0.0000000  0.0000000  1.0000000 )       (  0.0000000 )


     the magnetic double point group is C_3v (3m)   [C_3 (3)    ]
     using the double point group C_3 (3)    
     there are  6 classes and  3 irreducible representations
     the character table:

       E     -E    C3    -C3   C3^2  -C3^2
                                          
G_4    1.00 -1.00  0.50 -0.50  0.50 -0.50
G_5    1.00 -1.00  0.50 -0.50  0.50 -0.50
G_6    1.00 -1.00 -1.00  1.00 -1.00  1.00

     imaginary part

       E     -E    C3    -C3   C3^2  -C3^2
                                          
G_4    0.00  0.00  0.87 -0.87 -0.87  0.87
G_5    0.00  0.00 -0.87  0.87  0.87 -0.87
G_6    0.00  0.00  0.00  0.00  0.00  0.00

     the symmetry operations in each class and the name of the first element:

     E             1
          identity                                               
     -E           -1
          identity E                                             
     C3            2
          120 deg rotation - cryst. axis [0,0,1]                 
     -C3          -2
          120 deg rotation - cryst. axis [0,0,1] E               
     C3^2          3
          120 deg rotation - cryst. axis [0,0,-1]                
     -C3^2        -3
          120 deg rotation - cryst. axis [0,0,-1] E              

   Cartesian axes

     site n.     atom                  positions (alat units)
         1           Cr  tau(   1) = (   0.0000000   0.0000000   0.4846161  )
         2           Cr  tau(   2) = (   0.0000000   0.5773503   0.4846161  )
         3           I   tau(   3) = (  -0.1753225   0.8510331   0.7123856  )
         4           I   tau(   4) = (   0.3246775   0.5923426   0.7123856  )
         5           I   tau(   5) = (  -0.1493550   0.2886751   0.7123856  )
         6           I   tau(   6) = (  -0.3246775   0.5923426   0.2568467  )
         7           I   tau(   7) = (   0.1753225   0.8510331   0.2568467  )
         8           I   tau(   8) = (   0.1493550   0.2886751   0.2568467  )

   Crystallographic axes

     site n.     atom                  positions (cryst. coord.)
         1           Cr  tau(   1) = (  0.0000000  0.0000000  0.2515496  )
         2           Cr  tau(   2) = (  0.3333333  0.6666667  0.2515496  )
         3           I   tau(   3) = (  0.3160217  0.9826883  0.3697779  )
         4           I   tau(   4) = (  0.6666667  0.6839783  0.3697779  )
         5           I   tau(   5) = (  0.0173117  0.3333333  0.3697779  )
         6           I   tau(   6) = (  0.0173117  0.6839783  0.1333214  )
         7           I   tau(   7) = (  0.6666667  0.9826883  0.1333214  )
         8           I   tau(   8) = (  0.3160217  0.3333333  0.1333214  )

     number of k points=    51  Gaussian smearing, width (Ry)=  0.0050
                       cart. coord. in units 2pi/alat
        k(    1) = (   0.0000000   0.0000000   0.0000000), wk =   0.0039062
        k(    2) = (   0.0000000   0.0721688   0.0000000), wk =   0.0117188
        k(    3) = (   0.0000000   0.1443376   0.0000000), wk =   0.0117188
        k(    4) = (   0.0000000   0.2165064   0.0000000), wk =   0.0117188
        k(    5) = (   0.0000000   0.2886751   0.0000000), wk =   0.0117188
        k(    6) = (   0.0000000   0.3608439   0.0000000), wk =   0.0117188
        k(    7) = (   0.0000000   0.4330127   0.0000000), wk =   0.0117188
        k(    8) = (   0.0000000   0.5051815   0.0000000), wk =   0.0117188
        k(    9) = (   0.0000000  -0.5773503   0.0000000), wk =   0.0117188
        k(   10) = (   0.0625000   0.1082532   0.0000000), wk =   0.0234375
        k(   11) = (   0.0625000   0.1804220   0.0000000), wk =   0.0234375
        k(   12) = (   0.0625000   0.2525907   0.0000000), wk =   0.0234375
        k(   13) = (   0.0625000   0.3247595   0.0000000), wk =   0.0234375
        k(   14) = (   0.0625000   0.3969283   0.0000000), wk =   0.0234375
        k(   15) = (   0.0625000   0.4690971   0.0000000), wk =   0.0234375
        k(   16) = (   0.0625000   0.5412659   0.0000000), wk =   0.0234375
        k(   17) = (   0.1250000   0.2165064   0.0000000), wk =   0.0234375
        k(   18) = (   0.1250000   0.2886751   0.0000000), wk =   0.0234375
        k(   19) = (   0.1250000   0.3608439   0.0000000), wk =   0.0234375
        k(   20) = (   0.1250000   0.4330127   0.0000000), wk =   0.0234375
        k(   21) = (   0.1250000   0.5051815   0.0000000), wk =   0.0234375
        k(   22) = (   0.1250000   0.5773503   0.0000000), wk =   0.0234375
        k(   23) = (   0.1875000   0.3247595   0.0000000), wk =   0.0234375
        k(   24) = (   0.1875000   0.3969283   0.0000000), wk =   0.0234375
        k(   25) = (   0.1875000   0.4690971   0.0000000), wk =   0.0234375
        k(   26) = (   0.1875000   0.5412659   0.0000000), wk =   0.0234375
        k(   27) = (   0.2500000   0.4330127   0.0000000), wk =   0.0234375
        k(   28) = (   0.2500000   0.5051815   0.0000000), wk =   0.0234375
        k(   29) = (   0.2500000   0.5773503   0.0000000), wk =   0.0234375
        k(   30) = (   0.3125000   0.5412659   0.0000000), wk =   0.0234375
        k(   31) = (   0.0000000  -0.0721688   0.0000000), wk =   0.0117188
        k(   32) = (   0.0000000  -0.1443376   0.0000000), wk =   0.0117188
        k(   33) = (   0.0000000  -0.2165064   0.0000000), wk =   0.0117188
        k(   34) = (   0.0000000  -0.2886751   0.0000000), wk =   0.0117188
        k(   35) = (   0.0000000  -0.3608439   0.0000000), wk =   0.0117188
        k(   36) = (   0.0000000  -0.4330127   0.0000000), wk =   0.0117188
        k(   37) = (   0.0000000  -0.5051815   0.0000000), wk =   0.0117188
        k(   38) = (   0.0625000  -0.1804220   0.0000000), wk =   0.0234375
        k(   39) = (   0.0625000  -0.2525907   0.0000000), wk =   0.0234375
        k(   40) = (   0.0625000  -0.3247595   0.0000000), wk =   0.0234375
        k(   41) = (   0.0625000  -0.3969283   0.0000000), wk =   0.0234375
        k(   42) = (   0.0625000  -0.4690971   0.0000000), wk =   0.0234375
        k(   43) = (   0.0625000  -0.5412659   0.0000000), wk =   0.0234375
        k(   44) = (   0.1250000  -0.2886751   0.0000000), wk =   0.0234375
        k(   45) = (   0.1250000  -0.3608439   0.0000000), wk =   0.0234375
        k(   46) = (   0.1250000  -0.4330127   0.0000000), wk =   0.0234375
        k(   47) = (   0.1250000  -0.5051815   0.0000000), wk =   0.0234375
        k(   48) = (   0.1875000  -0.3969283   0.0000000), wk =   0.0234375
        k(   49) = (   0.1875000  -0.4690971   0.0000000), wk =   0.0234375
        k(   50) = (   0.1875000  -0.5412659   0.0000000), wk =   0.0234375
        k(   51) = (   0.2500000  -0.5051815   0.0000000), wk =   0.0234375

                       cryst. coord.
        k(    1) = (   0.0000000   0.0000000   0.0000000), wk =   0.0039062
        k(    2) = (   0.0000000   0.0625000   0.0000000), wk =   0.0117188
        k(    3) = (   0.0000000   0.1250000   0.0000000), wk =   0.0117188
        k(    4) = (   0.0000000   0.1875000   0.0000000), wk =   0.0117188
        k(    5) = (   0.0000000   0.2500000   0.0000000), wk =   0.0117188
        k(    6) = (   0.0000000   0.3125000   0.0000000), wk =   0.0117188
        k(    7) = (   0.0000000   0.3750000   0.0000000), wk =   0.0117188
        k(    8) = (   0.0000000   0.4375000   0.0000000), wk =   0.0117188
        k(    9) = (   0.0000000  -0.5000000   0.0000000), wk =   0.0117188
        k(   10) = (   0.0625000   0.0625000   0.0000000), wk =   0.0234375
        k(   11) = (   0.0625000   0.1250000   0.0000000), wk =   0.0234375
        k(   12) = (   0.0625000   0.1875000   0.0000000), wk =   0.0234375
        k(   13) = (   0.0625000   0.2500000   0.0000000), wk =   0.0234375
        k(   14) = (   0.0625000   0.3125000   0.0000000), wk =   0.0234375
        k(   15) = (   0.0625000   0.3750000   0.0000000), wk =   0.0234375
        k(   16) = (   0.0625000   0.4375000   0.0000000), wk =   0.0234375
        k(   17) = (   0.1250000   0.1250000   0.0000000), wk =   0.0234375
        k(   18) = (   0.1250000   0.1875000   0.0000000), wk =   0.0234375
        k(   19) = (   0.1250000   0.2500000   0.0000000), wk =   0.0234375
        k(   20) = (   0.1250000   0.3125000   0.0000000), wk =   0.0234375
        k(   21) = (   0.1250000   0.3750000   0.0000000), wk =   0.0234375
        k(   22) = (   0.1250000   0.4375000   0.0000000), wk =   0.0234375
        k(   23) = (   0.1875000   0.1875000   0.0000000), wk =   0.0234375
        k(   24) = (   0.1875000   0.2500000   0.0000000), wk =   0.0234375
        k(   25) = (   0.1875000   0.3125000   0.0000000), wk =   0.0234375
        k(   26) = (   0.1875000   0.3750000   0.0000000), wk =   0.0234375
        k(   27) = (   0.2500000   0.2500000   0.0000000), wk =   0.0234375
        k(   28) = (   0.2500000   0.3125000   0.0000000), wk =   0.0234375
        k(   29) = (   0.2500000   0.3750000   0.0000000), wk =   0.0234375
        k(   30) = (   0.3125000   0.3125000   0.0000000), wk =   0.0234375
        k(   31) = (   0.0000000  -0.0625000   0.0000000), wk =   0.0117188
        k(   32) = (   0.0000000  -0.1250000   0.0000000), wk =   0.0117188
        k(   33) = (   0.0000000  -0.1875000   0.0000000), wk =   0.0117188
        k(   34) = (   0.0000000  -0.2500000   0.0000000), wk =   0.0117188
        k(   35) = (   0.0000000  -0.3125000   0.0000000), wk =   0.0117188
        k(   36) = (   0.0000000  -0.3750000   0.0000000), wk =   0.0117188
        k(   37) = (   0.0000000  -0.4375000   0.0000000), wk =   0.0117188
        k(   38) = (   0.0625000  -0.1875000   0.0000000), wk =   0.0234375
        k(   39) = (   0.0625000  -0.2500000   0.0000000), wk =   0.0234375
        k(   40) = (   0.0625000  -0.3125000   0.0000000), wk =   0.0234375
        k(   41) = (   0.0625000  -0.3750000   0.0000000), wk =   0.0234375
        k(   42) = (   0.0625000  -0.4375000   0.0000000), wk =   0.0234375
        k(   43) = (   0.0625000  -0.5000000   0.0000000), wk =   0.0234375
        k(   44) = (   0.1250000  -0.3125000   0.0000000), wk =   0.0234375
        k(   45) = (   0.1250000  -0.3750000   0.0000000), wk =   0.0234375
        k(   46) = (   0.1250000  -0.4375000   0.0000000), wk =   0.0234375
        k(   47) = (   0.1250000  -0.5000000   0.0000000), wk =   0.0234375
        k(   48) = (   0.1875000  -0.4375000   0.0000000), wk =   0.0234375
        k(   49) = (   0.1875000  -0.5000000   0.0000000), wk =   0.0234375
        k(   50) = (   0.1875000  -0.5625000   0.0000000), wk =   0.0234375
        k(   51) = (   0.2500000  -0.5625000   0.0000000), wk =   0.0234375

     Dense  grid:   420595 G-vectors     FFT dimensions: (  81,  81, 160)

     Dynamical RAM for                 wfc:       5.61 MB

     Dynamical RAM for     wfc (w. buffer):     291.93 MB

     Dynamical RAM for           str. fact:       0.53 MB

     Dynamical RAM for           local pot:       0.00 MB

     Dynamical RAM for          nlocal pot:       9.09 MB

     Dynamical RAM for                qrad:       7.98 MB

     Dynamical RAM for          rho,v,vnew:       7.41 MB

     Dynamical RAM for               rhoin:       2.47 MB

     Dynamical RAM for            rho*nmix:      17.12 MB

     Dynamical RAM for           G-vectors:       1.14 MB

     Dynamical RAM for          h,s,v(r/c):       0.08 MB

     Dynamical RAM for          <psi|beta>:       0.70 MB

     Dynamical RAM for                 psi:      11.23 MB

     Dynamical RAM for                hpsi:      11.23 MB

     Dynamical RAM for      wfcinit/wfcrot:       9.00 MB

     Estimated static dynamical RAM per process >     324.16 MB

     Estimated max dynamical RAM per process >     364.51 MB

     Estimated total dynamical RAM >       8.54 GB
 ----2D----2D----2D----2D----2D----2D----2D----2D----2D----2D----2D----2D
  The code is running with the 2D cutoff
  Please refer to:
  Sohier, T., Calandra, M., & Mauri, F. (2017), 
  Density functional perturbation theory for gated two-dimensional heterostructu
 res:
  Theoretical developments and application to flexural phonons in graphene.
  Physical Review B, 96(7), 75448. https://doi.org/10.1103/PhysRevB.96.075448
 ----2D----2D----2D----2D----2D----2D----2D----2D----2D----2D----2D----2D
     Generating pointlists ...
     new r_m :   0.1637 (alat units)  2.1245 (a.u.) for type    1
     new r_m :   0.1637 (alat units)  2.1245 (a.u.) for type    2

     Initial potential from superposition of free atoms

     starting charge      69.9974, renormalised to      70.0000

     negative rho (up, down):  9.872E-08 1.403E-03

 ==============================================================================
     atom number    1 relative position :    0.0000   0.0000   0.4846
     charge :    12.704010  (integrated on a sphere of radius 0.164)
     magnetization :          0.000000    0.000000   12.369140
     magnetization/charge:    0.000000    0.000000    0.973641
     polar coord.: r, theta, phi [deg] :    12.369140    0.000000  360.000000

 ==============================================================================

 ==============================================================================
     atom number    2 relative position :    0.0000   0.5774   0.4846
     charge :    12.704010  (integrated on a sphere of radius 0.164)
     magnetization :          0.000000    0.000000   12.369140
     magnetization/charge:    0.000000    0.000000    0.973641
     polar coord.: r, theta, phi [deg] :    12.369140    0.000000  360.000000

 ==============================================================================

 ==============================================================================
     atom number    3 relative position :   -0.1753   0.8510   0.7124
     charge :     4.088527  (integrated on a sphere of radius 0.164)
     magnetization :          0.000000    0.000000    0.080708
     magnetization/charge:    0.000000    0.000000    0.019740
     polar coord.: r, theta, phi [deg] :     0.080708    0.000000  360.000000

 ==============================================================================

 ==============================================================================
     atom number    4 relative position :    0.3247   0.5923   0.7124
     charge :     4.088527  (integrated on a sphere of radius 0.164)
     magnetization :          0.000000    0.000000    0.080708
     magnetization/charge:    0.000000    0.000000    0.019740
     polar coord.: r, theta, phi [deg] :     0.080708    0.000000  360.000000

 ==============================================================================

 ==============================================================================
     atom number    5 relative position :   -0.1494   0.2887   0.7124
     charge :     4.088527  (integrated on a sphere of radius 0.164)
     magnetization :          0.000000    0.000000    0.080708
     magnetization/charge:    0.000000    0.000000    0.019740
     polar coord.: r, theta, phi [deg] :     0.080708    0.000000  360.000000

 ==============================================================================

 ==============================================================================
     atom number    6 relative position :   -0.3247   0.5923   0.2568
     charge :     4.088714  (integrated on a sphere of radius 0.164)
     magnetization :          0.000000    0.000000    0.080708
     magnetization/charge:    0.000000    0.000000    0.019739
     polar coord.: r, theta, phi [deg] :     0.080708    0.000000  360.000000

 ==============================================================================

 ==============================================================================
     atom number    7 relative position :    0.1753   0.8510   0.2568
     charge :     4.088714  (integrated on a sphere of radius 0.164)
     magnetization :          0.000000    0.000000    0.080708
     magnetization/charge:    0.000000    0.000000    0.019739
     polar coord.: r, theta, phi [deg] :     0.080708    0.000000  360.000000

 ==============================================================================

 ==============================================================================
     atom number    8 relative position :    0.1494   0.2887   0.2568
     charge :     4.088714  (integrated on a sphere of radius 0.164)
     magnetization :          0.000000    0.000000    0.080708
     magnetization/charge:    0.000000    0.000000    0.019739
     polar coord.: r, theta, phi [deg] :     0.080708    0.000000  360.000000

 ==============================================================================
     Starting wfcs are   88 randomized atomic wfcs

     total cpu time spent up to now is       47.2 secs

     Self-consistent Calculation

     iteration #  1     ecut=    90.00 Ry     beta= 0.70
     Davidson diagonalization with overlap

---- Real-time Memory Report at c_bands before calling an iterative solver
           491 MiB given to the printing process from OS
             0 MiB allocation reported by mallinfo(arena+hblkhd)
         88685 MiB available memory on the node where the printing process lives
------------------
     c_bands:  5 eigenvalues not converged
     c_bands:  1 eigenvalues not converged
     c_bands:  1 eigenvalues not converged
     c_bands:  1 eigenvalues not converged
     c_bands:  5 eigenvalues not converged
     c_bands:  2 eigenvalues not converged
     c_bands:  2 eigenvalues not converged
     c_bands:  1 eigenvalues not converged
     c_bands:  5 eigenvalues not converged
     c_bands:  2 eigenvalues not converged
     c_bands:  2 eigenvalues not converged
     c_bands:  1 eigenvalues not converged
     c_bands:  5 eigenvalues not converged
     c_bands:  5 eigenvalues not converged
     c_bands:  5 eigenvalues not converged
     c_bands:  5 eigenvalues not converged
     c_bands:  4 eigenvalues not converged
     c_bands:  2 eigenvalues not converged
     c_bands:  1 eigenvalues not converged
     c_bands:  1 eigenvalues not converged
     c_bands:  1 eigenvalues not converged
     c_bands:  1 eigenvalues not converged
     c_bands:  5 eigenvalues not converged
     c_bands:  1 eigenvalues not converged
     c_bands:  1 eigenvalues not converged
     c_bands:  1 eigenvalues not converged
     c_bands:  1 eigenvalues not converged
     c_bands:  5 eigenvalues not converged
     ethr =  5.00E-06,  avg # of iterations = 34.0

     negative rho (up, down):  2.254E-08 1.201E-03

     total cpu time spent up to now is      703.0 secs

     total energy              =    -511.41395708 Ry
     estimated scf accuracy    <       4.45181897 Ry

     total magnetization       =     0.00     0.00     6.30 Bohr mag/cell
     absolute magnetization    =    10.90 Bohr mag/cell

     iteration #  2     ecut=    90.00 Ry     beta= 0.70
     Davidson diagonalization with overlap

---- Real-time Memory Report at c_bands before calling an iterative solver
           523 MiB given to the printing process from OS
             0 MiB allocation reported by mallinfo(arena+hblkhd)
         86070 MiB available memory on the node where the printing process lives
------------------
     ethr =  6.36E-03,  avg # of iterations =  7.2

     total cpu time spent up to now is      861.2 secs

     total energy              =    -511.78739651 Ry
     estimated scf accuracy    <       0.59664944 Ry

     total magnetization       =     0.00    -0.00     6.29 Bohr mag/cell
     absolute magnetization    =    10.65 Bohr mag/cell

     iteration #  3     ecut=    90.00 Ry     beta= 0.70
     Davidson diagonalization with overlap

---- Real-time Memory Report at c_bands before calling an iterative solver
           532 MiB given to the printing process from OS
             0 MiB allocation reported by mallinfo(arena+hblkhd)
         85477 MiB available memory on the node where the printing process lives
------------------
     c_bands:  2 eigenvalues not converged
     c_bands:  2 eigenvalues not converged
     c_bands:  2 eigenvalues not converged
     c_bands:  2 eigenvalues not converged
     c_bands:  1 eigenvalues not converged
     c_bands:  2 eigenvalues not converged
     c_bands:  3 eigenvalues not converged
     c_bands:  3 eigenvalues not converged
     c_bands:  1 eigenvalues not converged
     c_bands:  2 eigenvalues not converged
     c_bands:  3 eigenvalues not converged
     c_bands:  2 eigenvalues not converged
     c_bands:  1 eigenvalues not converged
     c_bands:  1 eigenvalues not converged
     ethr =  8.52E-04,  avg # of iterations = 11.8

     total cpu time spent up to now is     1072.4 secs

     total energy              =    -511.65785647 Ry
     estimated scf accuracy    <       3.51406783 Ry

     total magnetization       =     0.00     0.00     6.00 Bohr mag/cell
     absolute magnetization    =     6.69 Bohr mag/cell

     iteration #  4     ecut=    90.00 Ry     beta= 0.70
     Davidson diagonalization with overlap

---- Real-time Memory Report at c_bands before calling an iterative solver
           534 MiB given to the printing process from OS
             0 MiB allocation reported by mallinfo(arena+hblkhd)
         85089 MiB available memory on the node where the printing process lives
------------------
     c_bands:  1 eigenvalues not converged
     c_bands:  2 eigenvalues not converged
     c_bands:  3 eigenvalues not converged
     c_bands:  2 eigenvalues not converged
     c_bands:  2 eigenvalues not converged
     c_bands:  4 eigenvalues not converged
     c_bands:  2 eigenvalues not converged
     c_bands:  2 eigenvalues not converged
     c_bands:  2 eigenvalues not converged
     c_bands:  2 eigenvalues not converged
     c_bands:  3 eigenvalues not converged
     c_bands:  1 eigenvalues not converged
     c_bands:  2 eigenvalues not converged
     c_bands:  2 eigenvalues not converged
     c_bands:  1 eigenvalues not converged
     c_bands:  4 eigenvalues not converged
     c_bands:  4 eigenvalues not converged
     c_bands:  1 eigenvalues not converged
     c_bands:  2 eigenvalues not converged
     c_bands:  2 eigenvalues not converged
     c_bands:  2 eigenvalues not converged
     c_bands:  2 eigenvalues not converged
     c_bands:  2 eigenvalues not converged
     ethr =  8.52E-04,  avg # of iterations = 18.2

     total cpu time spent up to now is     1334.4 secs

     total energy              =    -512.09214769 Ry
     estimated scf accuracy    <       0.05738232 Ry

     total magnetization       =    -0.00    -0.00     6.06 Bohr mag/cell
     absolute magnetization    =     7.93 Bohr mag/cell

     iteration #  5     ecut=    90.00 Ry     beta= 0.70
     Davidson diagonalization with overlap

---- Real-time Memory Report at c_bands before calling an iterative solver
           536 MiB given to the printing process from OS
             0 MiB allocation reported by mallinfo(arena+hblkhd)
         93553 MiB available memory on the node where the printing process lives
------------------
     ethr =  8.20E-05,  avg # of iterations =  7.9

     total cpu time spent up to now is     1529.0 secs

     total energy              =    -512.10786436 Ry
     estimated scf accuracy    <       0.00752674 Ry

     total magnetization       =     0.00     0.00     6.04 Bohr mag/cell
     absolute magnetization    =     7.64 Bohr mag/cell

     iteration #  6     ecut=    90.00 Ry     beta= 0.70
     Davidson diagonalization with overlap

---- Real-time Memory Report at c_bands before calling an iterative solver
           538 MiB given to the printing process from OS
             0 MiB allocation reported by mallinfo(arena+hblkhd)
         76155 MiB available memory on the node where the printing process lives
------------------
     ethr =  1.08E-05,  avg # of iterations =  2.7

     total cpu time spent up to now is     1674.5 secs

     total energy              =    -512.11025341 Ry
     estimated scf accuracy    <       0.00123021 Ry

     total magnetization       =    -0.00     0.00     6.04 Bohr mag/cell
     absolute magnetization    =     7.38 Bohr mag/cell

     iteration #  7     ecut=    90.00 Ry     beta= 0.70
     Davidson diagonalization with overlap

---- Real-time Memory Report at c_bands before calling an iterative solver
           540 MiB given to the printing process from OS
             0 MiB allocation reported by mallinfo(arena+hblkhd)
         76073 MiB available memory on the node where the printing process lives
------------------
     ethr =  1.76E-06,  avg # of iterations =  4.1

     total cpu time spent up to now is     1851.6 secs

     total energy              =    -512.11065811 Ry
     estimated scf accuracy    <       0.00029416 Ry

     total magnetization       =    -0.00    -0.00     6.03 Bohr mag/cell
     absolute magnetization    =     7.24 Bohr mag/cell

     iteration #  8     ecut=    90.00 Ry     beta= 0.70
     Davidson diagonalization with overlap

---- Real-time Memory Report at c_bands before calling an iterative solver
           543 MiB given to the printing process from OS
             0 MiB allocation reported by mallinfo(arena+hblkhd)
         75665 MiB available memory on the node where the printing process lives
------------------
     ethr =  4.20E-07,  avg # of iterations =  3.1

     total cpu time spent up to now is     2019.1 secs

     total energy              =    -512.11076489 Ry
     estimated scf accuracy    <       0.00007746 Ry

     total magnetization       =    -0.00    -0.00     6.03 Bohr mag/cell
     absolute magnetization    =     7.16 Bohr mag/cell

     iteration #  9     ecut=    90.00 Ry     beta= 0.70
     Davidson diagonalization with overlap

---- Real-time Memory Report at c_bands before calling an iterative solver
           545 MiB given to the printing process from OS
             0 MiB allocation reported by mallinfo(arena+hblkhd)
         76738 MiB available memory on the node where the printing process lives
------------------
     ethr =  1.11E-07,  avg # of iterations =  2.5

     total cpu time spent up to now is     2178.5 secs

     total energy              =    -512.11077492 Ry
     estimated scf accuracy    <       0.00003150 Ry

     total magnetization       =     0.00     0.00     6.03 Bohr mag/cell
     absolute magnetization    =     7.16 Bohr mag/cell

     iteration # 10     ecut=    90.00 Ry     beta= 0.70
     Davidson diagonalization with overlap

---- Real-time Memory Report at c_bands before calling an iterative solver
           547 MiB given to the printing process from OS
             0 MiB allocation reported by mallinfo(arena+hblkhd)
         74707 MiB available memory on the node where the printing process lives
------------------
     ethr =  4.50E-08,  avg # of iterations =  2.0

     total cpu time spent up to now is     2287.2 secs

     total energy              =    -512.11078070 Ry
     estimated scf accuracy    <       0.00000182 Ry

     total magnetization       =    -0.00    -0.00     6.03 Bohr mag/cell
     absolute magnetization    =     7.17 Bohr mag/cell

     iteration # 11     ecut=    90.00 Ry     beta= 0.70
     Davidson diagonalization with overlap

---- Real-time Memory Report at c_bands before calling an iterative solver
           549 MiB given to the printing process from OS
             0 MiB allocation reported by mallinfo(arena+hblkhd)
         79451 MiB available memory on the node where the printing process lives
------------------
     ethr =  2.60E-09,  avg # of iterations =  4.5

     total cpu time spent up to now is     2378.7 secs

     total energy              =    -512.11078131 Ry
     estimated scf accuracy    <       0.00000004 Ry

     total magnetization       =    -0.00    -0.00     6.03 Bohr mag/cell
     absolute magnetization    =     7.16 Bohr mag/cell

     iteration # 12     ecut=    90.00 Ry     beta= 0.70
     Davidson diagonalization with overlap

---- Real-time Memory Report at c_bands before calling an iterative solver
           549 MiB given to the printing process from OS
             0 MiB allocation reported by mallinfo(arena+hblkhd)
         79152 MiB available memory on the node where the printing process lives
------------------
     ethr =  5.14E-11,  avg # of iterations =  5.0

     total cpu time spent up to now is     2499.2 secs

     total energy              =    -512.11078133 Ry
     estimated scf accuracy    <       0.00000008 Ry

     total magnetization       =    -0.00    -0.00     6.03 Bohr mag/cell
     absolute magnetization    =     7.16 Bohr mag/cell

     iteration # 13     ecut=    90.00 Ry     beta= 0.70
     Davidson diagonalization with overlap

---- Real-time Memory Report at c_bands before calling an iterative solver
           549 MiB given to the printing process from OS
             0 MiB allocation reported by mallinfo(arena+hblkhd)
         79083 MiB available memory on the node where the printing process lives
------------------
     ethr =  5.14E-11,  avg # of iterations =  2.4

     total cpu time spent up to now is     2585.6 secs

     total energy              =    -512.11078133 Ry
     estimated scf accuracy    <          3.7E-09 Ry

     total magnetization       =    -0.00    -0.00     6.03 Bohr mag/cell
     absolute magnetization    =     7.16 Bohr mag/cell

     iteration # 14     ecut=    90.00 Ry     beta= 0.70
     Davidson diagonalization with overlap

---- Real-time Memory Report at c_bands before calling an iterative solver
           549 MiB given to the printing process from OS
             0 MiB allocation reported by mallinfo(arena+hblkhd)
         78876 MiB available memory on the node where the printing process lives
------------------
     ethr =  5.21E-12,  avg # of iterations =  3.8

     total cpu time spent up to now is     2675.9 secs

     total energy              =    -512.11078134 Ry
     estimated scf accuracy    <          1.6E-09 Ry

     total magnetization       =    -0.00    -0.00     6.03 Bohr mag/cell
     absolute magnetization    =     7.16 Bohr mag/cell

     iteration # 15     ecut=    90.00 Ry     beta= 0.70
     Davidson diagonalization with overlap

---- Real-time Memory Report at c_bands before calling an iterative solver
           549 MiB given to the printing process from OS
             0 MiB allocation reported by mallinfo(arena+hblkhd)
         78788 MiB available memory on the node where the printing process lives
------------------
     ethr =  2.25E-12,  avg # of iterations =  2.0

     total cpu time spent up to now is     2760.1 secs

     total energy              =    -512.11078134 Ry
     estimated scf accuracy    <          5.0E-11 Ry

     total magnetization       =     0.00    -0.00     6.03 Bohr mag/cell
     absolute magnetization    =     7.16 Bohr mag/cell

     iteration # 16     ecut=    90.00 Ry     beta= 0.70
     Davidson diagonalization with overlap

---- Real-time Memory Report at c_bands before calling an iterative solver
           549 MiB given to the printing process from OS
             0 MiB allocation reported by mallinfo(arena+hblkhd)
         78685 MiB available memory on the node where the printing process lives
------------------
     ethr =  1.00E-13,  avg # of iterations =  4.0

     total cpu time spent up to now is     2856.0 secs

     total energy              =    -512.11078134 Ry
     estimated scf accuracy    <          6.5E-12 Ry

     total magnetization       =     0.00     0.00     6.03 Bohr mag/cell
     absolute magnetization    =     7.16 Bohr mag/cell

     iteration # 17     ecut=    90.00 Ry     beta= 0.70
     Davidson diagonalization with overlap

---- Real-time Memory Report at c_bands before calling an iterative solver
           549 MiB given to the printing process from OS
             0 MiB allocation reported by mallinfo(arena+hblkhd)
         78564 MiB available memory on the node where the printing process lives
------------------
     ethr =  1.00E-13,  avg # of iterations =  1.0

     total cpu time spent up to now is     2921.1 secs

     total energy              =    -512.11078134 Ry
     estimated scf accuracy    <          2.2E-12 Ry

     total magnetization       =    -0.00    -0.00     6.03 Bohr mag/cell
     absolute magnetization    =     7.16 Bohr mag/cell

     iteration # 18     ecut=    90.00 Ry     beta= 0.70
     Davidson diagonalization with overlap

---- Real-time Memory Report at c_bands before calling an iterative solver
           549 MiB given to the printing process from OS
             0 MiB allocation reported by mallinfo(arena+hblkhd)
         78563 MiB available memory on the node where the printing process lives
------------------
     ethr =  1.00E-13,  avg # of iterations =  1.0

 ==============================================================================
     atom number    1 relative position :    0.0000   0.0000   0.4846
     charge :    12.442886  (integrated on a sphere of radius 0.164)
     magnetization :         -0.000000    0.000000    2.945372
     magnetization/charge:   -0.000000    0.000000    0.236711
     polar coord.: r, theta, phi [deg] :     2.945372    0.000000  360.000000

 ==============================================================================

 ==============================================================================
     atom number    2 relative position :    0.0000   0.5774   0.4846
     charge :    12.442886  (integrated on a sphere of radius 0.164)
     magnetization :         -0.000000   -0.000000    2.945372
     magnetization/charge:   -0.000000   -0.000000    0.236711
     polar coord.: r, theta, phi [deg] :     2.945372    0.000000  360.000000

 ==============================================================================

 ==============================================================================
     atom number    3 relative position :   -0.1753   0.8510   0.7124
     charge :     4.119526  (integrated on a sphere of radius 0.164)
     magnetization :         -0.000546   -0.000945   -0.050520
     magnetization/charge:   -0.000132   -0.000229   -0.012264
     polar coord.: r, theta, phi [deg] :     0.050532  178.762597 -120.000000

 ==============================================================================

 ==============================================================================
     atom number    4 relative position :    0.3247   0.5923   0.7124
     charge :     4.119526  (integrated on a sphere of radius 0.164)
     magnetization :         -0.000546    0.000945   -0.050520
     magnetization/charge:   -0.000132    0.000229   -0.012264
     polar coord.: r, theta, phi [deg] :     0.050532  178.762597  120.000000

 ==============================================================================

 ==============================================================================
     atom number    5 relative position :   -0.1494   0.2887   0.7124
     charge :     4.119526  (integrated on a sphere of radius 0.164)
     magnetization :          0.001091   -0.000000   -0.050520
     magnetization/charge:    0.000265   -0.000000   -0.012264
     polar coord.: r, theta, phi [deg] :     0.050532  178.762597    0.000000

 ==============================================================================

 ==============================================================================
     atom number    6 relative position :   -0.3247   0.5923   0.2568
     charge :     4.119712  (integrated on a sphere of radius 0.164)
     magnetization :         -0.000546   -0.000946   -0.050520
     magnetization/charge:   -0.000133   -0.000230   -0.012263
     polar coord.: r, theta, phi [deg] :     0.050532  178.761534 -120.000000

 ==============================================================================

 ==============================================================================
     atom number    7 relative position :    0.1753   0.8510   0.2568
     charge :     4.119712  (integrated on a sphere of radius 0.164)
     magnetization :         -0.000546    0.000946   -0.050520
     magnetization/charge:   -0.000133    0.000230   -0.012263
     polar coord.: r, theta, phi [deg] :     0.050532  178.761534  120.000000

 ==============================================================================

 ==============================================================================
     atom number    8 relative position :    0.1494   0.2887   0.2568
     charge :     4.119712  (integrated on a sphere of radius 0.164)
     magnetization :          0.001092    0.000000   -0.050520
     magnetization/charge:    0.000265    0.000000   -0.012263
     polar coord.: r, theta, phi [deg] :     0.050532  178.761534    0.000000

 ==============================================================================

     total cpu time spent up to now is     2986.2 secs

     End of self-consistent calculation

          k = 0.0000 0.0000 0.0000 ( 52593 PWs)   bands (ev):

   -77.3267 -77.3265 -74.3850 -74.3847 -49.4764 -49.4737 -49.1588 -49.1579
   -48.7151 -48.7120 -46.3718 -46.3683 -46.0773 -46.0760 -45.7718 -45.7678
   -18.4844 -18.4665 -17.7601 -17.7414 -17.4529 -17.4507 -17.4381 -17.4359
   -17.3591 -17.3584 -17.3437 -17.3430 -10.1423  -9.8994  -9.6505  -9.4540
    -9.3031  -9.2823  -9.1753  -9.0803  -9.0418  -9.0031  -8.7993  -8.6608
    -8.5799  -8.5130  -8.2563  -8.1336  -8.1161  -7.8897  -7.8671  -7.7364
    -7.6356  -7.5980  -7.5245  -7.3059  -7.2703  -7.1465  -6.9901  -6.9159
    -6.6627  -6.6016  -6.3935  -6.3934  -6.1421  -6.0683  -6.0567  -6.0379
    -5.9704  -5.9628  -5.8397  -5.6670  -5.3420  -5.2572  -4.4201  -4.3550
    -4.1427  -3.7717  -3.7373  -3.7369  -3.7110  -3.6449  -3.4143  -3.3616
    -2.8680  -2.8364  -2.6822  -2.4703

     occupation numbers 
     1.0000   1.0000   1.0000   1.0000   1.0000   1.0000   1.0000   1.0000
     1.0000   1.0000   1.0000   1.0000   1.0000   1.0000   1.0000   1.0000
     1.0000   1.0000   1.0000   1.0000   1.0000   1.0000   1.0000   1.0000
     1.0000   1.0000   1.0000   1.0000   1.0000   1.0000   1.0000   1.0000
     1.0000   1.0000   1.0000   1.0000   1.0000   1.0000   1.0000   1.0000
     1.0000   1.0000   1.0000   1.0000   1.0000   1.0000   1.0000   1.0000
     1.0000   1.0000   1.0000   1.0000   1.0000   1.0000   1.0000   1.0000
     1.0000   1.0000   1.0000   1.0000   1.0000   1.0000   1.0000   1.0000
     1.0000   1.0000   1.0000   1.0000   1.0000   1.0000   0.0000   0.0000
     0.0000   0.0000   0.0000   0.0000   0.0000   0.0000   0.0000   0.0000
     0.0000   0.0000   0.0000   0.0000

          k = 0.0000 0.0722 0.0000 ( 52616 PWs)   bands (ev):

   -77.3267 -77.3265 -74.3850 -74.3847 -49.4764 -49.4738 -49.1588 -49.1579
   -48.7151 -48.7121 -46.3718 -46.3684 -46.0773 -46.0761 -45.7717 -45.7678
   -18.4761 -18.4583 -17.7554 -17.7367 -17.4636 -17.4568 -17.4492 -17.4420
   -17.3595 -17.3587 -17.3442 -17.3434 -10.1422  -9.9017  -9.6493  -9.4531
    -9.2932  -9.2846  -9.1656  -9.0968  -9.0394  -9.0321  -8.7677  -8.6920
    -8.5561  -8.4485  -8.2557  -8.1242  -8.1043  -7.8666  -7.8541  -7.7132
    -7.6481  -7.5889  -7.5373  -7.3044  -7.2601  -7.1468  -6.9927  -6.9235
    -6.6814  -6.6079  -6.4041  -6.3803  -6.1531  -6.1179  -6.0792  -6.0159
    -5.9653  -5.9438  -5.8645  -5.6616  -5.3955  -5.2792  -4.4186  -4.3512
    -4.1527  -3.7982  -3.7672  -3.7167  -3.6767  -3.6357  -3.4191  -3.3661
    -2.8705  -2.8346  -2.6906  -2.4932

     occupation numbers 
     1.0000   1.0000   1.0000   1.0000   1.0000   1.0000   1.0000   1.0000
     1.0000   1.0000   1.0000   1.0000   1.0000   1.0000   1.0000   1.0000
     1.0000   1.0000   1.0000   1.0000   1.0000   1.0000   1.0000   1.0000
     1.0000   1.0000   1.0000   1.0000   1.0000   1.0000   1.0000   1.0000
     1.0000   1.0000   1.0000   1.0000   1.0000   1.0000   1.0000   1.0000
     1.0000   1.0000   1.0000   1.0000   1.0000   1.0000   1.0000   1.0000
     1.0000   1.0000   1.0000   1.0000   1.0000   1.0000   1.0000   1.0000
     1.0000   1.0000   1.0000   1.0000   1.0000   1.0000   1.0000   1.0000
     1.0000   1.0000   1.0000   1.0000   1.0000   1.0000   0.0000   0.0000
     0.0000   0.0000   0.0000   0.0000   0.0000   0.0000   0.0000   0.0000
     0.0000   0.0000   0.0000   0.0000

          k = 0.0000 0.1443 0.0000 ( 52628 PWs)   bands (ev):

   -77.3267 -77.3265 -74.3850 -74.3847 -49.4763 -49.4738 -49.1587 -49.1579
   -48.7150 -48.7122 -46.3717 -46.3685 -46.0772 -46.0761 -45.7716 -45.7679
   -18.4513 -18.4341 -17.7413 -17.7227 -17.4966 -17.4834 -17.4706 -17.4556
   -17.3621 -17.3610 -17.3472 -17.3458 -10.1401  -9.9053  -9.6465  -9.4507
    -9.2877  -9.2721  -9.1480  -9.1304  -9.0848  -9.0284  -8.7130  -8.6978
    -8.4934  -8.3480  -8.2421  -8.1411  -8.0271  -7.8452  -7.7900  -7.6898
    -7.6287  -7.5783  -7.5546  -7.3032  -7.2376  -7.1498  -7.0029  -6.9439
    -6.7347  -6.6131  -6.4362  -6.3619  -6.2384  -6.1513  -6.1027  -6.0043
    -5.9584  -5.9520  -5.9002  -5.6533  -5.5230  -5.3303  -4.4150  -4.3396
    -4.1831  -3.8703  -3.7876  -3.6833  -3.6551  -3.5836  -3.4315  -3.3777
    -2.8793  -2.8305  -2.7127  -2.5441

     occupation numbers 
     1.0000   1.0000   1.0000   1.0000   1.0000   1.0000   1.0000   1.0000
     1.0000   1.0000   1.0000   1.0000   1.0000   1.0000   1.0000   1.0000
     1.0000   1.0000   1.0000   1.0000   1.0000   1.0000   1.0000   1.0000
     1.0000   1.0000   1.0000   1.0000   1.0000   1.0000   1.0000   1.0000
     1.0000   1.0000   1.0000   1.0000   1.0000   1.0000   1.0000   1.0000
     1.0000   1.0000   1.0000   1.0000   1.0000   1.0000   1.0000   1.0000
     1.0000   1.0000   1.0000   1.0000   1.0000   1.0000   1.0000   1.0000
     1.0000   1.0000   1.0000   1.0000   1.0000   1.0000   1.0000   1.0000
     1.0000   1.0000   1.0000   1.0000   1.0000   1.0000   0.0000   0.0000
     0.0000   0.0000   0.0000   0.0000   0.0000   0.0000   0.0000   0.0000
     0.0000   0.0000   0.0000   0.0000

          k = 0.0000 0.2165 0.0000 ( 52614 PWs)   bands (ev):

   -77.3267 -77.3265 -74.3850 -74.3847 -49.4762 -49.4739 -49.1587 -49.1580
   -48.7149 -48.7123 -46.3716 -46.3686 -46.0772 -46.0761 -45.7715 -45.7681
   -18.4109 -18.3945 -17.7185 -17.7001 -17.5479 -17.5364 -17.4888 -17.4736
   -17.3683 -17.3676 -17.3533 -17.3529 -10.1336  -9.9058  -9.6411  -9.4452
    -9.2853  -9.2581  -9.1621  -9.1461  -9.1025  -9.0127  -8.6768  -8.6139
    -8.4135  -8.3349  -8.1760  -8.1205  -7.9517  -7.8390  -7.7353  -7.6824
    -7.6080  -7.5501  -7.4745  -7.3140  -7.2233  -7.1605  -7.0274  -6.9679
    -6.7906  -6.6400  -6.4873  -6.3829  -6.3127  -6.1858  -6.1095  -6.0759
    -5.9892  -5.9379  -5.8889  -5.6641  -5.6510  -5.3824  -4.4100  -4.3211
    -4.2262  -3.9569  -3.8028  -3.6662  -3.6370  -3.5171  -3.4438  -3.3900
    -2.8931  -2.8301  -2.7347  -2.5944

     occupation numbers 
     1.0000   1.0000   1.0000   1.0000   1.0000   1.0000   1.0000   1.0000
     1.0000   1.0000   1.0000   1.0000   1.0000   1.0000   1.0000   1.0000
     1.0000   1.0000   1.0000   1.0000   1.0000   1.0000   1.0000   1.0000
     1.0000   1.0000   1.0000   1.0000   1.0000   1.0000   1.0000   1.0000
     1.0000   1.0000   1.0000   1.0000   1.0000   1.0000   1.0000   1.0000
     1.0000   1.0000   1.0000   1.0000   1.0000   1.0000   1.0000   1.0000
     1.0000   1.0000   1.0000   1.0000   1.0000   1.0000   1.0000   1.0000
     1.0000   1.0000   1.0000   1.0000   1.0000   1.0000   1.0000   1.0000
     1.0000   1.0000   1.0000   1.0000   1.0000   1.0000   0.0000   0.0000
     0.0000   0.0000   0.0000   0.0000   0.0000   0.0000   0.0000   0.0000
     0.0000   0.0000   0.0000   0.0000

          k = 0.0000 0.2887 0.0000 ( 52560 PWs)   bands (ev):

   -77.3267 -77.3265 -74.3850 -74.3847 -49.4761 -49.4741 -49.1587 -49.1580
   -48.7147 -48.7124 -46.3714 -46.3688 -46.0771 -46.0762 -45.7713 -45.7683
   -18.3563 -18.3411 -17.6883 -17.6700 -17.6140 -17.6048 -17.5080 -17.4926
   -17.3827 -17.3755 -17.3673 -17.3615 -10.1248  -9.9039  -9.6267  -9.4301
    -9.2844  -9.2564  -9.1753  -9.1445  -9.0828  -8.9816  -8.6027  -8.5303
    -8.3864  -8.3084  -8.1738  -7.9999  -7.9863  -7.8281  -7.7160  -7.6104
    -7.5757  -7.5436  -7.3822  -7.2949  -7.2278  -7.1782  -7.0716  -6.9772
    -6.8225  -6.7173  -6.5473  -6.4389  -6.3309  -6.2220  -6.1913  -6.1017
    -5.9813  -5.9187  -5.8902  -5.7602  -5.6735  -5.4218  -4.4014  -4.2969
    -4.2611  -4.0405  -3.8193  -3.7045  -3.5941  -3.4727  -3.4497  -3.3872
    -2.9017  -2.8377  -2.7417  -2.6324

     occupation numbers 
     1.0000   1.0000   1.0000   1.0000   1.0000   1.0000   1.0000   1.0000
     1.0000   1.0000   1.0000   1.0000   1.0000   1.0000   1.0000   1.0000
     1.0000   1.0000   1.0000   1.0000   1.0000   1.0000   1.0000   1.0000
     1.0000   1.0000   1.0000   1.0000   1.0000   1.0000   1.0000   1.0000
     1.0000   1.0000   1.0000   1.0000   1.0000   1.0000   1.0000   1.0000
     1.0000   1.0000   1.0000   1.0000   1.0000   1.0000   1.0000   1.0000
     1.0000   1.0000   1.0000   1.0000   1.0000   1.0000   1.0000   1.0000
     1.0000   1.0000   1.0000   1.0000   1.0000   1.0000   1.0000   1.0000
     1.0000   1.0000   1.0000   1.0000   1.0000   1.0000   0.0000   0.0000
     0.0000   0.0000   0.0000   0.0000   0.0000   0.0000   0.0000   0.0000
     0.0000   0.0000   0.0000   0.0000

          k = 0.0000 0.3608 0.0000 ( 52574 PWs)   bands (ev):

   -77.3267 -77.3266 -74.3849 -74.3848 -49.4759 -49.4742 -49.1586 -49.1581
   -48.7145 -48.7126 -46.3712 -46.3690 -46.0770 -46.0763 -45.7710 -45.7685
   -18.2900 -18.2762 -17.6910 -17.6843 -17.6521 -17.6340 -17.5255 -17.5099
   -17.4047 -17.3892 -17.3839 -17.3704 -10.1195  -9.9043  -9.5953  -9.3997
    -9.2988  -9.2545  -9.1773  -9.0946  -9.0410  -8.9394  -8.5245  -8.5034
    -8.3821  -8.2323  -8.1755  -8.0824  -7.9418  -7.7660  -7.7194  -7.5939
    -7.5581  -7.4968  -7.4710  -7.3059  -7.1897  -7.1155  -7.0815  -6.9499
    -6.8302  -6.7860  -6.6233  -6.4694  -6.3492  -6.2675  -6.2514  -6.0911
    -5.9775  -5.9201  -5.8914  -5.8054  -5.6992  -5.4508  -4.3867  -4.2833
    -4.2559  -4.1185  -3.8393  -3.7648  -3.5707  -3.4566  -3.4496  -3.3609
    -2.9001  -2.8411  -2.7358  -2.6569

     occupation numbers 
     1.0000   1.0000   1.0000   1.0000   1.0000   1.0000   1.0000   1.0000
     1.0000   1.0000   1.0000   1.0000   1.0000   1.0000   1.0000   1.0000
     1.0000   1.0000   1.0000   1.0000   1.0000   1.0000   1.0000   1.0000
     1.0000   1.0000   1.0000   1.0000   1.0000   1.0000   1.0000   1.0000
     1.0000   1.0000   1.0000   1.0000   1.0000   1.0000   1.0000   1.0000
     1.0000   1.0000   1.0000   1.0000   1.0000   1.0000   1.0000   1.0000
     1.0000   1.0000   1.0000   1.0000   1.0000   1.0000   1.0000   1.0000
     1.0000   1.0000   1.0000   1.0000   1.0000   1.0000   1.0000   1.0000
     1.0000   1.0000   1.0000   1.0000   1.0000   1.0000   0.0000   0.0000
     0.0000   0.0000   0.0000   0.0000   0.0000   0.0000   0.0000   0.0000
     0.0000   0.0000   0.0000   0.0000

          k = 0.0000 0.4330 0.0000 ( 52578 PWs)   bands (ev):

   -77.3267 -77.3266 -74.3849 -74.3848 -49.4757 -49.4744 -49.1585 -49.1581
   -48.7143 -48.7128 -46.3710 -46.3692 -46.0770 -46.0764 -45.7708 -45.7688
   -18.2163 -18.2040 -17.7732 -17.7689 -17.6124 -17.5945 -17.5393 -17.5236
   -17.4335 -17.4178 -17.3913 -17.3782 -10.1200  -9.9086  -9.5505  -9.3631
    -9.3113  -9.2634  -9.1409  -9.0162  -8.9797  -8.9086  -8.5351  -8.4478
    -8.3510  -8.2876  -8.1342  -8.0965  -7.9698  -7.7574  -7.7231  -7.6615
    -7.6105  -7.4857  -7.4511  -7.3482  -7.2579  -7.0066  -6.9954  -6.8597
    -6.8285  -6.7947  -6.6940  -6.4822  -6.3744  -6.3044  -6.2825  -6.1159
    -5.9802  -5.9417  -5.8729  -5.7911  -5.7239  -5.4757  -4.3690  -4.2853
    -4.2112  -4.1857  -3.8615  -3.8305  -3.5692  -3.4546  -3.4395  -3.3339
    -2.9066  -2.8216  -2.7211  -2.6687

     occupation numbers 
     1.0000   1.0000   1.0000   1.0000   1.0000   1.0000   1.0000   1.0000
     1.0000   1.0000   1.0000   1.0000   1.0000   1.0000   1.0000   1.0000
     1.0000   1.0000   1.0000   1.0000   1.0000   1.0000   1.0000   1.0000
     1.0000   1.0000   1.0000   1.0000   1.0000   1.0000   1.0000   1.0000
     1.0000   1.0000   1.0000   1.0000   1.0000   1.0000   1.0000   1.0000
     1.0000   1.0000   1.0000   1.0000   1.0000   1.0000   1.0000   1.0000
     1.0000   1.0000   1.0000   1.0000   1.0000   1.0000   1.0000   1.0000
     1.0000   1.0000   1.0000   1.0000   1.0000   1.0000   1.0000   1.0000
     1.0000   1.0000   1.0000   1.0000   1.0000   1.0000   0.0000   0.0000
     0.0000   0.0000   0.0000   0.0000   0.0000   0.0000   0.0000   0.0000
     0.0000   0.0000   0.0000   0.0000

          k = 0.0000 0.5052 0.0000 ( 52552 PWs)   bands (ev):

   -77.3267 -77.3266 -74.3849 -74.3848 -49.4756 -49.4746 -49.1585 -49.1582
   -48.7142 -48.7130 -46.3708 -46.3694 -46.0769 -46.0764 -45.7705 -45.7690
   -18.1454 -18.1343 -17.8495 -17.8469 -17.5734 -17.5555 -17.5481 -17.5324
   -17.4657 -17.4499 -17.3963 -17.3834 -10.1234  -9.9140  -9.5102  -9.3476
    -9.3036  -9.2729  -9.0769  -8.9441  -8.9152  -8.9070  -8.5353  -8.4267
    -8.3939  -8.3039  -8.1174  -8.0607  -8.0146  -7.8536  -7.8150  -7.6722
    -7.6223  -7.4843  -7.4109  -7.3282  -7.3035  -6.9873  -6.9038  -6.8660
    -6.7913  -6.7243  -6.6857  -6.4871  -6.4104  -6.3347  -6.2908  -6.1819
    -5.9757  -5.9535  -5.8526  -5.7546  -5.7417  -5.4987  -4.3501  -4.2846
    -4.2470  -4.1586  -3.8871  -3.8749  -3.5748  -3.4539  -3.4318  -3.3170
    -2.9176  -2.8005  -2.7033  -2.6670

     occupation numbers 
     1.0000   1.0000   1.0000   1.0000   1.0000   1.0000   1.0000   1.0000
     1.0000   1.0000   1.0000   1.0000   1.0000   1.0000   1.0000   1.0000
     1.0000   1.0000   1.0000   1.0000   1.0000   1.0000   1.0000   1.0000
     1.0000   1.0000   1.0000   1.0000   1.0000   1.0000   1.0000   1.0000
     1.0000   1.0000   1.0000   1.0000   1.0000   1.0000   1.0000   1.0000
     1.0000   1.0000   1.0000   1.0000   1.0000   1.0000   1.0000   1.0000
     1.0000   1.0000   1.0000   1.0000   1.0000   1.0000   1.0000   1.0000
     1.0000   1.0000   1.0000   1.0000   1.0000   1.0000   1.0000   1.0000
     1.0000   1.0000   1.0000   1.0000   1.0000   1.0000   0.0000   0.0000
     0.0000   0.0000   0.0000   0.0000   0.0000   0.0000   0.0000   0.0000
     0.0000   0.0000   0.0000   0.0000

          k = 0.0000-0.5774 0.0000 ( 52578 PWs)   bands (ev):

   -77.3267 -77.3266 -74.3849 -74.3848 -49.4755 -49.4746 -49.1585 -49.1582
   -48.7141 -48.7131 -46.3707 -46.3695 -46.0769 -46.0765 -45.7704 -45.7691
   -18.1094 -18.0985 -17.8877 -17.8854 -17.5513 -17.5510 -17.5354 -17.5329
   -17.4856 -17.4701 -17.3980 -17.3852 -10.1251  -9.9164  -9.4942  -9.3472
    -9.2959  -9.2748  -9.0254  -8.9638  -8.8987  -8.8623  -8.5394  -8.4469
    -8.4178  -8.2143  -8.2109  -8.0245  -8.0119  -7.9360  -7.8366  -7.6766
    -7.6300  -7.4854  -7.3925  -7.3127  -7.3052  -7.0046  -6.8953  -6.8191
    -6.8181  -6.6638  -6.6634  -6.4887  -6.4338  -6.3513  -6.2812  -6.2228
    -5.9734  -5.9591  -5.8420  -5.7486  -5.7358  -5.5098  -4.3372  -4.2839
    -4.2736  -4.1388  -3.9053  -3.8835  -3.5776  -3.4540  -3.4289  -3.3115
    -2.9221  -2.7938  -2.6976  -2.6604

     occupation numbers 
     1.0000   1.0000   1.0000   1.0000   1.0000   1.0000   1.0000   1.0000
     1.0000   1.0000   1.0000   1.0000   1.0000   1.0000   1.0000   1.0000
     1.0000   1.0000   1.0000   1.0000   1.0000   1.0000   1.0000   1.0000
     1.0000   1.0000   1.0000   1.0000   1.0000   1.0000   1.0000   1.0000
     1.0000   1.0000   1.0000   1.0000   1.0000   1.0000   1.0000   1.0000
     1.0000   1.0000   1.0000   1.0000   1.0000   1.0000   1.0000   1.0000
     1.0000   1.0000   1.0000   1.0000   1.0000   1.0000   1.0000   1.0000
     1.0000   1.0000   1.0000   1.0000   1.0000   1.0000   1.0000   1.0000
     1.0000   1.0000   1.0000   1.0000   1.0000   1.0000   0.0000   0.0000
     0.0000   0.0000   0.0000   0.0000   0.0000   0.0000   0.0000   0.0000
     0.0000   0.0000   0.0000   0.0000

          k = 0.0625 0.1083 0.0000 ( 52607 PWs)   bands (ev):

   -77.3267 -77.3265 -74.3850 -74.3847 -49.4763 -49.4738 -49.1587 -49.1579
   -48.7150 -48.7121 -46.3718 -46.3684 -46.0773 -46.0761 -45.7717 -45.7679
   -18.4595 -18.4421 -17.7459 -17.7273 -17.4850 -17.4714 -17.4673 -17.4523
   -17.3608 -17.3603 -17.3456 -17.3451 -10.1409  -9.9043  -9.6475  -9.4517
    -9.2905  -9.2747  -9.1533  -9.1195  -9.0732  -9.0311  -8.7219  -8.7087
    -8.5126  -8.3707  -8.2511  -8.1355  -8.0515  -7.8508  -7.8094  -7.6811
    -7.6536  -7.5756  -7.5559  -7.3028  -7.2439  -7.1486  -7.0002  -6.9366
    -6.7190  -6.6106  -6.4254  -6.3653  -6.2075  -6.1517  -6.0949  -6.0049
    -5.9574  -5.9391  -5.8994  -5.6548  -5.4856  -5.3153  -4.4163  -4.3434
    -4.1737  -3.8476  -3.7785  -3.7107  -3.6350  -3.6113  -3.4278  -3.3741
    -2.8769  -2.8309  -2.7061  -2.5292

     occupation numbers 
     1.0000   1.0000   1.0000   1.0000   1.0000   1.0000   1.0000   1.0000
     1.0000   1.0000   1.0000   1.0000   1.0000   1.0000   1.0000   1.0000
     1.0000   1.0000   1.0000   1.0000   1.0000   1.0000   1.0000   1.0000
     1.0000   1.0000   1.0000   1.0000   1.0000   1.0000   1.0000   1.0000
     1.0000   1.0000   1.0000   1.0000   1.0000   1.0000   1.0000   1.0000
     1.0000   1.0000   1.0000   1.0000   1.0000   1.0000   1.0000   1.0000
     1.0000   1.0000   1.0000   1.0000   1.0000   1.0000   1.0000   1.0000
     1.0000   1.0000   1.0000   1.0000   1.0000   1.0000   1.0000   1.0000
     1.0000   1.0000   1.0000   1.0000   1.0000   1.0000   0.0000   0.0000
     0.0000   0.0000   0.0000   0.0000   0.0000   0.0000   0.0000   0.0000
     0.0000   0.0000   0.0000   0.0000

          k = 0.0625 0.1804 0.0000 ( 52600 PWs)   bands (ev):

   -77.3267 -77.3265 -74.3850 -74.3847 -49.4762 -49.4739 -49.1587 -49.1579
   -48.7149 -48.7122 -46.3716 -46.3685 -46.0772 -46.0761 -45.7715 -45.7680
   -18.4269 -18.4102 -17.7275 -17.7090 -17.5254 -17.5132 -17.4851 -17.4700
   -17.3660 -17.3638 -17.3509 -17.3490 -10.1348  -9.9043  -9.6451  -9.4495
    -9.2928  -9.2564  -9.1620  -9.1312  -9.1060  -9.0203  -8.6945  -8.6445
    -8.4400  -8.3325  -8.1949  -8.1393  -7.9719  -7.8448  -7.7371  -7.7048
    -7.5973  -7.5608  -7.5293  -7.3022  -7.2294  -7.1567  -7.0228  -6.9534
    -6.7741  -6.6203  -6.4666  -6.3658  -6.2948  -6.1883  -6.1025  -6.0284
    -5.9883  -5.9472  -5.8913  -5.6533  -5.6146  -5.3640  -4.4133  -4.3280
    -4.2140  -3.9216  -3.7870  -3.7040  -3.6090  -3.5509  -3.4396  -3.3858
    -2.8922  -2.8248  -2.7290  -2.5760

     occupation numbers 
     1.0000   1.0000   1.0000   1.0000   1.0000   1.0000   1.0000   1.0000
     1.0000   1.0000   1.0000   1.0000   1.0000   1.0000   1.0000   1.0000
     1.0000   1.0000   1.0000   1.0000   1.0000   1.0000   1.0000   1.0000
     1.0000   1.0000   1.0000   1.0000   1.0000   1.0000   1.0000   1.0000
     1.0000   1.0000   1.0000   1.0000   1.0000   1.0000   1.0000   1.0000
     1.0000   1.0000   1.0000   1.0000   1.0000   1.0000   1.0000   1.0000
     1.0000   1.0000   1.0000   1.0000   1.0000   1.0000   1.0000   1.0000
     1.0000   1.0000   1.0000   1.0000   1.0000   1.0000   1.0000   1.0000
     1.0000   1.0000   1.0000   1.0000   1.0000   1.0000   0.0000   0.0000
     0.0000   0.0000   0.0000   0.0000   0.0000   0.0000   0.0000   0.0000
     0.0000   0.0000   0.0000   0.0000

          k = 0.0625 0.2526 0.0000 ( 52616 PWs)   bands (ev):

   -77.3267 -77.3265 -74.3850 -74.3847 -49.4761 -49.4740 -49.1587 -49.1580
   -48.7148 -48.7124 -46.3715 -46.3687 -46.0772 -46.0762 -45.7714 -45.7682
   -18.3794 -18.3637 -17.7010 -17.6826 -17.5826 -17.5724 -17.5055 -17.4903
   -17.3766 -17.3706 -17.3614 -17.3562 -10.1230  -9.8992  -9.6388  -9.4426
    -9.2898  -9.2522  -9.1736  -9.1445  -9.0998  -8.9972  -8.6343  -8.5563
    -8.3802  -8.3385  -8.1684  -8.0420  -7.9590  -7.8415  -7.7304  -7.6162
    -7.6087  -7.5501  -7.3840  -7.3200  -7.2317  -7.1810  -7.0538  -6.9699
    -6.8161  -6.6701  -6.5156  -6.4207  -6.3303  -6.2214  -6.1469  -6.0989
    -5.9783  -5.9369  -5.8783  -5.7317  -5.6640  -5.4054  -4.4094  -4.3064
    -4.2564  -3.9965  -3.8009  -3.7070  -3.5942  -3.4969  -3.4436  -3.3917
    -2.9091  -2.8221  -2.7429  -2.6158

     occupation numbers 
     1.0000   1.0000   1.0000   1.0000   1.0000   1.0000   1.0000   1.0000
     1.0000   1.0000   1.0000   1.0000   1.0000   1.0000   1.0000   1.0000
     1.0000   1.0000   1.0000   1.0000   1.0000   1.0000   1.0000   1.0000
     1.0000   1.0000   1.0000   1.0000   1.0000   1.0000   1.0000   1.0000
     1.0000   1.0000   1.0000   1.0000   1.0000   1.0000   1.0000   1.0000
     1.0000   1.0000   1.0000   1.0000   1.0000   1.0000   1.0000   1.0000
     1.0000   1.0000   1.0000   1.0000   1.0000   1.0000   1.0000   1.0000
     1.0000   1.0000   1.0000   1.0000   1.0000   1.0000   1.0000   1.0000
     1.0000   1.0000   1.0000   1.0000   1.0000   1.0000   0.0000   0.0000
     0.0000   0.0000   0.0000   0.0000   0.0000   0.0000   0.0000   0.0000
     0.0000   0.0000   0.0000   0.0000

          k = 0.0625 0.3248 0.0000 ( 52583 PWs)   bands (ev):

   -77.3267 -77.3266 -74.3849 -74.3848 -49.4760 -49.4742 -49.1586 -49.1580
   -48.7146 -48.7125 -46.3713 -46.3689 -46.0771 -46.0762 -45.7711 -45.7684
   -18.3188 -18.3044 -17.6678 -17.6532 -17.6496 -17.6454 -17.5252 -17.5098
   -17.3941 -17.3794 -17.3785 -17.3654 -10.1106  -9.8930  -9.6195  -9.4227
    -9.2914  -9.2550  -9.1786  -9.1236  -9.0696  -8.9601  -8.5555  -8.4995
    -8.4004  -8.2605  -8.1592  -8.0473  -7.9435  -7.8147  -7.7107  -7.5983
    -7.5701  -7.5224  -7.3986  -7.2804  -7.2033  -7.1798  -7.0784  -6.9724
    -6.8345  -6.7438  -6.5704  -6.4648  -6.3516  -6.2523  -6.2332  -6.0932
    -5.9702  -5.9308  -5.8755  -5.8032  -5.6875  -5.4369  -4.3994  -4.2909
    -4.2679  -4.0677  -3.8209  -3.7429  -3.5778  -3.4810  -3.4326  -3.3761
    -2.9129  -2.8233  -2.7418  -2.6451

     occupation numbers 
     1.0000   1.0000   1.0000   1.0000   1.0000   1.0000   1.0000   1.0000
     1.0000   1.0000   1.0000   1.0000   1.0000   1.0000   1.0000   1.0000
     1.0000   1.0000   1.0000   1.0000   1.0000   1.0000   1.0000   1.0000
     1.0000   1.0000   1.0000   1.0000   1.0000   1.0000   1.0000   1.0000
     1.0000   1.0000   1.0000   1.0000   1.0000   1.0000   1.0000   1.0000
     1.0000   1.0000   1.0000   1.0000   1.0000   1.0000   1.0000   1.0000
     1.0000   1.0000   1.0000   1.0000   1.0000   1.0000   1.0000   1.0000
     1.0000   1.0000   1.0000   1.0000   1.0000   1.0000   1.0000   1.0000
     1.0000   1.0000   1.0000   1.0000   1.0000   1.0000   0.0000   0.0000
     0.0000   0.0000   0.0000   0.0000   0.0000   0.0000   0.0000   0.0000
     0.0000   0.0000   0.0000   0.0000

          k = 0.0625 0.3969 0.0000 ( 52581 PWs)   bands (ev):

   -77.3267 -77.3266 -74.3849 -74.3848 -49.4758 -49.4743 -49.1586 -49.1581
   -48.7144 -48.7127 -46.3710 -46.3691 -46.0770 -46.0763 -45.7709 -45.7687
   -18.2482 -18.2354 -17.7325 -17.7273 -17.6298 -17.6118 -17.5418 -17.5264
   -17.4190 -17.4034 -17.3876 -17.3741 -10.1038  -9.8909  -9.5817  -9.3873
    -9.3038  -9.2547  -9.1670  -9.0634  -9.0162  -8.9216  -8.5267  -8.4803
    -8.3704  -8.2515  -8.1505  -8.0873  -7.9485  -7.7459  -7.7219  -7.6681
    -7.5788  -7.4864  -7.4249  -7.3509  -7.2134  -7.0573  -7.0311  -6.9249
    -6.8323  -6.7687  -6.6480  -6.4783  -6.3824  -6.2977  -6.2631  -6.0988
    -5.9713  -5.9415  -5.8772  -5.8052  -5.7131  -5.4634  -4.3804  -4.2957
    -4.2311  -4.1340  -3.8449  -3.8007  -3.5696  -3.4850  -3.4191  -3.3482
    -2.9058  -2.8176  -2.7301  -2.6633

     occupation numbers 
     1.0000   1.0000   1.0000   1.0000   1.0000   1.0000   1.0000   1.0000
     1.0000   1.0000   1.0000   1.0000   1.0000   1.0000   1.0000   1.0000
     1.0000   1.0000   1.0000   1.0000   1.0000   1.0000   1.0000   1.0000
     1.0000   1.0000   1.0000   1.0000   1.0000   1.0000   1.0000   1.0000
     1.0000   1.0000   1.0000   1.0000   1.0000   1.0000   1.0000   1.0000
     1.0000   1.0000   1.0000   1.0000   1.0000   1.0000   1.0000   1.0000
     1.0000   1.0000   1.0000   1.0000   1.0000   1.0000   1.0000   1.0000
     1.0000   1.0000   1.0000   1.0000   1.0000   1.0000   1.0000   1.0000
     1.0000   1.0000   1.0000   1.0000   1.0000   1.0000   0.0000   0.0000
     0.0000   0.0000   0.0000   0.0000   0.0000   0.0000   0.0000   0.0000
     0.0000   0.0000   0.0000   0.0000

          k = 0.0625 0.4691 0.0000 ( 52532 PWs)   bands (ev):

   -77.3267 -77.3266 -74.3849 -74.3848 -49.4756 -49.4745 -49.1585 -49.1582
   -48.7142 -48.7129 -46.3708 -46.3694 -46.0769 -46.0764 -45.7706 -45.7689
   -18.1740 -18.1626 -17.8132 -17.8101 -17.5900 -17.5721 -17.5538 -17.5383
   -17.4495 -17.4337 -17.3941 -17.3809 -10.1033  -9.8933  -9.5359  -9.3533
    -9.3091  -9.2621  -9.1192  -8.9856  -8.9483  -8.9104  -8.5443  -8.4332
    -8.3702  -8.3362  -8.1173  -8.0838  -7.9700  -7.8165  -7.7913  -7.6638
    -7.6003  -7.4792  -7.4293  -7.3361  -7.2589  -6.9972  -6.9451  -6.8625
    -6.7923  -6.7543  -6.6892  -6.4820  -6.4143  -6.3336  -6.2802  -6.1492
    -5.9705  -5.9472  -5.8691  -5.7681  -5.7345  -5.4886  -4.3568  -4.2962
    -4.2120  -4.1645  -3.8681  -3.8575  -3.5718  -3.4874  -3.4101  -3.3261
    -2.9047  -2.8020  -2.7103  -2.6692

     occupation numbers 
     1.0000   1.0000   1.0000   1.0000   1.0000   1.0000   1.0000   1.0000
     1.0000   1.0000   1.0000   1.0000   1.0000   1.0000   1.0000   1.0000
     1.0000   1.0000   1.0000   1.0000   1.0000   1.0000   1.0000   1.0000
     1.0000   1.0000   1.0000   1.0000   1.0000   1.0000   1.0000   1.0000
     1.0000   1.0000   1.0000   1.0000   1.0000   1.0000   1.0000   1.0000
     1.0000   1.0000   1.0000   1.0000   1.0000   1.0000   1.0000   1.0000
     1.0000   1.0000   1.0000   1.0000   1.0000   1.0000   1.0000   1.0000
     1.0000   1.0000   1.0000   1.0000   1.0000   1.0000   1.0000   1.0000
     1.0000   1.0000   1.0000   1.0000   1.0000   1.0000   0.0000   0.0000
     0.0000   0.0000   0.0000   0.0000   0.0000   0.0000   0.0000   0.0000
     0.0000   0.0000   0.0000   0.0000

          k = 0.0625 0.5413 0.0000 ( 52565 PWs)   bands (ev):

   -77.3267 -77.3266 -74.3849 -74.3848 -49.4755 -49.4746 -49.1585 -49.1582
   -48.7141 -48.7131 -46.3707 -46.3695 -46.0769 -46.0765 -45.7704 -45.7691
   -18.1142 -18.1034 -17.8766 -17.8746 -17.5603 -17.5555 -17.5445 -17.5377
   -17.4789 -17.4633 -17.3976 -17.3845 -10.1049  -9.8962  -9.5045  -9.3433
    -9.2993  -9.2676  -9.0545  -8.9573  -8.9145  -8.8813  -8.5467  -8.4606
    -8.4153  -8.2800  -8.1782  -8.0939  -7.9429  -7.9141  -7.8349  -7.6623
    -7.5978  -7.5044  -7.4062  -7.2896  -7.2798  -6.9930  -6.9017  -6.8458
    -6.8013  -6.6937  -6.6422  -6.4920  -6.4380  -6.3584  -6.2845  -6.2053
    -5.9640  -5.9544  -5.8558  -5.7479  -5.7340  -5.5082  -4.3337  -4.2967
    -4.2482  -4.1363  -3.8948  -3.8807  -3.5755  -3.4881  -3.4055  -3.3151
    -2.9077  -2.7922  -2.6974  -2.6620

     occupation numbers 
     1.0000   1.0000   1.0000   1.0000   1.0000   1.0000   1.0000   1.0000
     1.0000   1.0000   1.0000   1.0000   1.0000   1.0000   1.0000   1.0000
     1.0000   1.0000   1.0000   1.0000   1.0000   1.0000   1.0000   1.0000
     1.0000   1.0000   1.0000   1.0000   1.0000   1.0000   1.0000   1.0000
     1.0000   1.0000   1.0000   1.0000   1.0000   1.0000   1.0000   1.0000
     1.0000   1.0000   1.0000   1.0000   1.0000   1.0000   1.0000   1.0000
     1.0000   1.0000   1.0000   1.0000   1.0000   1.0000   1.0000   1.0000
     1.0000   1.0000   1.0000   1.0000   1.0000   1.0000   1.0000   1.0000
     1.0000   1.0000   1.0000   1.0000   1.0000   1.0000   0.0000   0.0000
     0.0000   0.0000   0.0000   0.0000   0.0000   0.0000   0.0000   0.0000
     0.0000   0.0000   0.0000   0.0000

          k = 0.1250 0.2165 0.0000 ( 52635 PWs)   bands (ev):

   -77.3267 -77.3265 -74.3850 -74.3847 -49.4761 -49.4740 -49.1587 -49.1580
   -48.7148 -48.7123 -46.3715 -46.3687 -46.0772 -46.0762 -45.7714 -45.7682
   -18.3871 -18.3713 -17.7053 -17.6869 -17.5687 -17.5582 -17.5084 -17.4932
   -17.3750 -17.3681 -17.3598 -17.3536 -10.1198  -9.8948  -9.6451  -9.4493
    -9.2969  -9.2471  -9.1774  -9.1319  -9.1124  -9.0032  -8.6445  -8.5650
    -8.3754  -8.3526  -8.1644  -8.0562  -7.9528  -7.8496  -7.7389  -7.6162
    -7.6117  -7.5556  -7.4139  -7.2933  -7.2478  -7.1819  -7.0534  -6.9603
    -6.8139  -6.6457  -6.5028  -6.4149  -6.3317  -6.2309  -6.1275  -6.0917
    -5.9736  -5.9460  -5.8739  -5.7222  -5.6607  -5.3976  -4.4141  -4.3090
    -4.2577  -3.9747  -3.7774  -3.7346  -3.5779  -3.5152  -3.4417  -3.3915
    -2.9146  -2.8120  -2.7441  -2.6071

     occupation numbers 
     1.0000   1.0000   1.0000   1.0000   1.0000   1.0000   1.0000   1.0000
     1.0000   1.0000   1.0000   1.0000   1.0000   1.0000   1.0000   1.0000
     1.0000   1.0000   1.0000   1.0000   1.0000   1.0000   1.0000   1.0000
     1.0000   1.0000   1.0000   1.0000   1.0000   1.0000   1.0000   1.0000
     1.0000   1.0000   1.0000   1.0000   1.0000   1.0000   1.0000   1.0000
     1.0000   1.0000   1.0000   1.0000   1.0000   1.0000   1.0000   1.0000
     1.0000   1.0000   1.0000   1.0000   1.0000   1.0000   1.0000   1.0000
     1.0000   1.0000   1.0000   1.0000   1.0000   1.0000   1.0000   1.0000
     1.0000   1.0000   1.0000   1.0000   1.0000   1.0000   0.0000   0.0000
     0.0000   0.0000   0.0000   0.0000   0.0000   0.0000   0.0000   0.0000
     0.0000   0.0000   0.0000   0.0000

          k = 0.1250 0.2887 0.0000 ( 52604 PWs)   bands (ev):

   -77.3267 -77.3265 -74.3849 -74.3847 -49.4760 -49.4741 -49.1586 -49.1580
   -48.7146 -48.7125 -46.3713 -46.3689 -46.0771 -46.0762 -45.7712 -45.7684
   -18.3334 -18.3188 -17.6759 -17.6576 -17.6268 -17.6186 -17.5332 -17.5180
   -17.3888 -17.3753 -17.3734 -17.3610 -10.0959  -9.8763  -9.6411  -9.4444
    -9.2949  -9.2519  -9.1742  -9.1309  -9.0959  -8.9748  -8.5746  -8.4904
    -8.4181  -8.2718  -8.1455  -8.0266  -7.9378  -7.8554  -7.7068  -7.6228
    -7.5764  -7.5250  -7.3320  -7.2897  -7.2475  -7.2063  -7.0653  -6.9765
    -6.8354  -6.6919  -6.5294  -6.4811  -6.3523  -6.2591  -6.2130  -6.0921
    -5.9635  -5.9407  -5.8610  -5.8056  -5.6809  -5.4254  -4.4129  -4.2979
    -4.2745  -4.0239  -3.7887  -3.7539  -3.5811  -3.4941  -3.4262  -3.3851
    -2.9270  -2.7981  -2.7490  -2.6331

     occupation numbers 
     1.0000   1.0000   1.0000   1.0000   1.0000   1.0000   1.0000   1.0000
     1.0000   1.0000   1.0000   1.0000   1.0000   1.0000   1.0000   1.0000
     1.0000   1.0000   1.0000   1.0000   1.0000   1.0000   1.0000   1.0000
     1.0000   1.0000   1.0000   1.0000   1.0000   1.0000   1.0000   1.0000
     1.0000   1.0000   1.0000   1.0000   1.0000   1.0000   1.0000   1.0000
     1.0000   1.0000   1.0000   1.0000   1.0000   1.0000   1.0000   1.0000
     1.0000   1.0000   1.0000   1.0000   1.0000   1.0000   1.0000   1.0000
     1.0000   1.0000   1.0000   1.0000   1.0000   1.0000   1.0000   1.0000
     1.0000   1.0000   1.0000   1.0000   1.0000   1.0000   0.0000   0.0000
     0.0000   0.0000   0.0000   0.0000   0.0000   0.0000   0.0000   0.0000
     0.0000   0.0000   0.0000   0.0000

          k = 0.1250 0.3608 0.0000 ( 52572 PWs)   bands (ev):

   -77.3267 -77.3266 -74.3849 -74.3848 -49.4758 -49.4743 -49.1586 -49.1581
   -48.7145 -48.7127 -46.3711 -46.3691 -46.0770 -46.0763 -45.7709 -45.7686
   -18.2681 -18.2549 -17.6975 -17.6918 -17.6407 -17.6227 -17.5552 -17.5401
   -17.4085 -17.3930 -17.3842 -17.3703 -10.0712  -9.8567  -9.6214  -9.4241
    -9.2934  -9.2525  -9.1715  -9.1027  -9.0525  -8.9395  -8.5184  -8.5027
    -8.3960  -8.2420  -8.1353  -8.0679  -7.9322  -7.7848  -7.7125  -7.6801
    -7.5897  -7.4742  -7.3741  -7.3297  -7.2019  -7.1018  -7.0512  -6.9644
    -6.8363  -6.7239  -6.5780  -6.5036  -6.3836  -6.3075  -6.2438  -6.0952
    -5.9702  -5.9393  -5.8781  -5.8100  -5.7054  -5.4516  -4.3969  -4.3089
    -4.2424  -4.0730  -3.8217  -3.7786  -3.5845  -3.5036  -3.4036  -3.3642
    -2.9167  -2.7883  -2.7406  -2.6538

     occupation numbers 
     1.0000   1.0000   1.0000   1.0000   1.0000   1.0000   1.0000   1.0000
     1.0000   1.0000   1.0000   1.0000   1.0000   1.0000   1.0000   1.0000
     1.0000   1.0000   1.0000   1.0000   1.0000   1.0000   1.0000   1.0000
     1.0000   1.0000   1.0000   1.0000   1.0000   1.0000   1.0000   1.0000
     1.0000   1.0000   1.0000   1.0000   1.0000   1.0000   1.0000   1.0000
     1.0000   1.0000   1.0000   1.0000   1.0000   1.0000   1.0000   1.0000
     1.0000   1.0000   1.0000   1.0000   1.0000   1.0000   1.0000   1.0000
     1.0000   1.0000   1.0000   1.0000   1.0000   1.0000   1.0000   1.0000
     1.0000   1.0000   1.0000   1.0000   1.0000   1.0000   0.0000   0.0000
     0.0000   0.0000   0.0000   0.0000   0.0000   0.0000   0.0000   0.0000
     0.0000   0.0000   0.0000   0.0000

          k = 0.1250 0.4330 0.0000 ( 52581 PWs)   bands (ev):

   -77.3267 -77.3266 -74.3849 -74.3848 -49.4757 -49.4745 -49.1585 -49.1581
   -48.7143 -48.7129 -46.3709 -46.3693 -46.0769 -46.0764 -45.7707 -45.7689
   -18.1953 -18.1836 -17.7753 -17.7719 -17.6023 -17.5844 -17.5721 -17.5570
   -17.4345 -17.4187 -17.3923 -17.3786 -10.0551  -9.8444  -9.5818  -9.3869
    -9.2983  -9.2455  -9.1554  -9.0478  -8.9880  -8.9187  -8.5539  -8.4629
    -8.3611  -8.3518  -8.1303  -8.0651  -7.9368  -7.8163  -7.7693  -7.6565
    -7.6165  -7.4800  -7.3628  -7.3369  -7.1996  -7.0397  -6.9853  -6.8935
    -6.8070  -6.7150  -6.6518  -6.4930  -6.4285  -6.3464  -6.2553  -6.1273
    -5.9782  -5.9396  -5.8813  -5.7739  -5.7269  -5.4787  -4.3652  -4.3121
    -4.2069  -4.1158  -3.8553  -3.8198  -3.5815  -3.5208  -3.3899  -3.3405
    -2.8937  -2.7841  -2.7184  -2.6669

     occupation numbers 
     1.0000   1.0000   1.0000   1.0000   1.0000   1.0000   1.0000   1.0000
     1.0000   1.0000   1.0000   1.0000   1.0000   1.0000   1.0000   1.0000
     1.0000   1.0000   1.0000   1.0000   1.0000   1.0000   1.0000   1.0000
     1.0000   1.0000   1.0000   1.0000   1.0000   1.0000   1.0000   1.0000
     1.0000   1.0000   1.0000   1.0000   1.0000   1.0000   1.0000   1.0000
     1.0000   1.0000   1.0000   1.0000   1.0000   1.0000   1.0000   1.0000
     1.0000   1.0000   1.0000   1.0000   1.0000   1.0000   1.0000   1.0000
     1.0000   1.0000   1.0000   1.0000   1.0000   1.0000   1.0000   1.0000
     1.0000   1.0000   1.0000   1.0000   1.0000   1.0000   0.0000   0.0000
     0.0000   0.0000   0.0000   0.0000   0.0000   0.0000   0.0000   0.0000
     0.0000   0.0000   0.0000   0.0000

          k = 0.1250 0.5052 0.0000 ( 52542 PWs)   bands (ev):

   -77.3267 -77.3266 -74.3849 -74.3848 -49.4755 -49.4746 -49.1585 -49.1582
   -48.7141 -48.7131 -46.3707 -46.3695 -46.0769 -46.0765 -45.7704 -45.7691
   -18.1245 -18.1140 -17.8494 -17.8477 -17.5828 -17.5677 -17.5644 -17.5468
   -17.4643 -17.4484 -17.3977 -17.3842 -10.0487  -9.8402  -9.5386  -9.3522
    -9.3001  -9.2445  -9.1086  -8.9819  -8.9468  -8.9137  -8.5643  -8.4787
    -8.4305  -8.3324  -8.1823  -8.1219  -7.9363  -7.8616  -7.8100  -7.6354
    -7.5966  -7.4672  -7.4132  -7.2671  -7.2141  -7.0042  -6.9201  -6.8606
    -6.7873  -6.7034  -6.6405  -6.4835  -6.4654  -6.3757  -6.2681  -6.1797
    -5.9635  -5.9400  -5.8800  -5.7480  -5.7263  -5.5044  -4.3305  -4.3108
    -4.2097  -4.1194  -3.8789  -3.8591  -3.5768  -3.5351  -3.3826  -3.3249
    -2.8764  -2.7833  -2.6971  -2.6654

     occupation numbers 
     1.0000   1.0000   1.0000   1.0000   1.0000   1.0000   1.0000   1.0000
     1.0000   1.0000   1.0000   1.0000   1.0000   1.0000   1.0000   1.0000
     1.0000   1.0000   1.0000   1.0000   1.0000   1.0000   1.0000   1.0000
     1.0000   1.0000   1.0000   1.0000   1.0000   1.0000   1.0000   1.0000
     1.0000   1.0000   1.0000   1.0000   1.0000   1.0000   1.0000   1.0000
     1.0000   1.0000   1.0000   1.0000   1.0000   1.0000   1.0000   1.0000
     1.0000   1.0000   1.0000   1.0000   1.0000   1.0000   1.0000   1.0000
     1.0000   1.0000   1.0000   1.0000   1.0000   1.0000   1.0000   1.0000
     1.0000   1.0000   1.0000   1.0000   1.0000   1.0000   0.0000   0.0000
     0.0000   0.0000   0.0000   0.0000   0.0000   0.0000   0.0000   0.0000
     0.0000   0.0000   0.0000   0.0000

          k = 0.1250 0.5774 0.0000 ( 52536 PWs)   bands (ev):

   -77.3267 -77.3266 -74.3849 -74.3848 -49.4754 -49.4747 -49.1585 -49.1582
   -48.7140 -48.7131 -46.3706 -46.3696 -46.0768 -46.0765 -45.7703 -45.7692
   -18.0876 -18.0774 -17.8877 -17.8864 -17.5864 -17.5713 -17.5427 -17.5248
   -17.4834 -17.4677 -17.3997 -17.3862 -10.0474  -9.8395  -9.5197  -9.3405
    -9.2978  -9.2453  -9.0660  -8.9886  -8.9302  -8.8897  -8.5846  -8.5048
    -8.4308  -8.2979  -8.2515  -8.1260  -7.9992  -7.8737  -7.7647  -7.6319
    -7.5748  -7.5067  -7.4149  -7.2244  -7.2172  -6.9952  -6.9074  -6.8499
    -6.8047  -6.6834  -6.5979  -6.5082  -6.4656  -6.3846  -6.2752  -6.2043
    -5.9540  -5.9429  -5.8776  -5.7524  -5.7079  -5.5168  -4.3179  -4.3014
[...]
    -8.3702  -8.3362  -8.1173  -8.0838  -7.9700  -7.8165  -7.7913  -7.6638
    -7.6003  -7.4792  -7.4293  -7.3361  -7.2589  -6.9972  -6.9451  -6.8625
    -6.7923  -6.7543  -6.6892  -6.4820  -6.4143  -6.3336  -6.2802  -6.1492
    -5.9705  -5.9472  -5.8691  -5.7681  -5.7345  -5.4886  -4.3568  -4.2962
    -4.2120  -4.1645  -3.8681  -3.8575  -3.5718  -3.4874  -3.4101  -3.3261
    -2.9047  -2.8020  -2.7103  -2.6692

     occupation numbers 
     1.0000   1.0000   1.0000   1.0000   1.0000   1.0000   1.0000   1.0000
     1.0000   1.0000   1.0000   1.0000   1.0000   1.0000   1.0000   1.0000
     1.0000   1.0000   1.0000   1.0000   1.0000   1.0000   1.0000   1.0000
     1.0000   1.0000   1.0000   1.0000   1.0000   1.0000   1.0000   1.0000
     1.0000   1.0000   1.0000   1.0000   1.0000   1.0000   1.0000   1.0000
     1.0000   1.0000   1.0000   1.0000   1.0000   1.0000   1.0000   1.0000
     1.0000   1.0000   1.0000   1.0000   1.0000   1.0000   1.0000   1.0000
     1.0000   1.0000   1.0000   1.0000   1.0000   1.0000   1.0000   1.0000
     1.0000   1.0000   1.0000   1.0000   1.0000   1.0000   0.0000   0.0000
     0.0000   0.0000   0.0000   0.0000   0.0000   0.0000   0.0000   0.0000
     0.0000   0.0000   0.0000   0.0000

          k = 0.0625-0.5413 0.0000 ( 52565 PWs)   bands (ev):

   -77.3267 -77.3266 -74.3849 -74.3848 -49.4755 -49.4746 -49.1585 -49.1582
   -48.7141 -48.7131 -46.3707 -46.3695 -46.0769 -46.0765 -45.7704 -45.7691
   -18.1142 -18.1034 -17.8766 -17.8746 -17.5603 -17.5555 -17.5445 -17.5377
   -17.4789 -17.4633 -17.3976 -17.3845 -10.1049  -9.8962  -9.5045  -9.3433
    -9.2993  -9.2676  -9.0545  -8.9573  -8.9145  -8.8813  -8.5467  -8.4606
    -8.4153  -8.2800  -8.1782  -8.0939  -7.9429  -7.9141  -7.8349  -7.6623
    -7.5978  -7.5044  -7.4062  -7.2896  -7.2798  -6.9930  -6.9017  -6.8458
    -6.8013  -6.6937  -6.6422  -6.4920  -6.4380  -6.3584  -6.2845  -6.2053
    -5.9640  -5.9544  -5.8558  -5.7479  -5.7340  -5.5082  -4.3337  -4.2967
    -4.2482  -4.1363  -3.8948  -3.8807  -3.5755  -3.4881  -3.4055  -3.3151
    -2.9077  -2.7922  -2.6974  -2.6620

     occupation numbers 
     1.0000   1.0000   1.0000   1.0000   1.0000   1.0000   1.0000   1.0000
     1.0000   1.0000   1.0000   1.0000   1.0000   1.0000   1.0000   1.0000
     1.0000   1.0000   1.0000   1.0000   1.0000   1.0000   1.0000   1.0000
     1.0000   1.0000   1.0000   1.0000   1.0000   1.0000   1.0000   1.0000
     1.0000   1.0000   1.0000   1.0000   1.0000   1.0000   1.0000   1.0000
     1.0000   1.0000   1.0000   1.0000   1.0000   1.0000   1.0000   1.0000
     1.0000   1.0000   1.0000   1.0000   1.0000   1.0000   1.0000   1.0000
     1.0000   1.0000   1.0000   1.0000   1.0000   1.0000   1.0000   1.0000
     1.0000   1.0000   1.0000   1.0000   1.0000   1.0000   0.0000   0.0000
     0.0000   0.0000   0.0000   0.0000   0.0000   0.0000   0.0000   0.0000
     0.0000   0.0000   0.0000   0.0000

          k = 0.1250-0.2887 0.0000 ( 52604 PWs)   bands (ev):

   -77.3267 -77.3265 -74.3849 -74.3847 -49.4760 -49.4741 -49.1586 -49.1580
   -48.7146 -48.7125 -46.3713 -46.3689 -46.0771 -46.0762 -45.7712 -45.7684
   -18.3334 -18.3188 -17.6759 -17.6576 -17.6268 -17.6186 -17.5332 -17.5180
   -17.3888 -17.3753 -17.3734 -17.3610 -10.0959  -9.8763  -9.6411  -9.4444
    -9.2949  -9.2519  -9.1742  -9.1309  -9.0959  -8.9748  -8.5746  -8.4904
    -8.4181  -8.2718  -8.1455  -8.0266  -7.9378  -7.8554  -7.7068  -7.6228
    -7.5764  -7.5250  -7.3320  -7.2897  -7.2475  -7.2063  -7.0653  -6.9765
    -6.8354  -6.6919  -6.5294  -6.4811  -6.3523  -6.2591  -6.2130  -6.0921
    -5.9635  -5.9407  -5.8610  -5.8056  -5.6809  -5.4254  -4.4129  -4.2979
    -4.2745  -4.0239  -3.7887  -3.7539  -3.5811  -3.4941  -3.4262  -3.3851
    -2.9270  -2.7981  -2.7490  -2.6331

     occupation numbers 
     1.0000   1.0000   1.0000   1.0000   1.0000   1.0000   1.0000   1.0000
     1.0000   1.0000   1.0000   1.0000   1.0000   1.0000   1.0000   1.0000
     1.0000   1.0000   1.0000   1.0000   1.0000   1.0000   1.0000   1.0000
     1.0000   1.0000   1.0000   1.0000   1.0000   1.0000   1.0000   1.0000
     1.0000   1.0000   1.0000   1.0000   1.0000   1.0000   1.0000   1.0000
     1.0000   1.0000   1.0000   1.0000   1.0000   1.0000   1.0000   1.0000
     1.0000   1.0000   1.0000   1.0000   1.0000   1.0000   1.0000   1.0000
     1.0000   1.0000   1.0000   1.0000   1.0000   1.0000   1.0000   1.0000
     1.0000   1.0000   1.0000   1.0000   1.0000   1.0000   0.0000   0.0000
     0.0000   0.0000   0.0000   0.0000   0.0000   0.0000   0.0000   0.0000
     0.0000   0.0000   0.0000   0.0000

          k = 0.1250-0.3608 0.0000 ( 52572 PWs)   bands (ev):

   -77.3267 -77.3266 -74.3849 -74.3848 -49.4758 -49.4743 -49.1586 -49.1581
   -48.7145 -48.7127 -46.3711 -46.3691 -46.0770 -46.0763 -45.7709 -45.7686
   -18.2681 -18.2549 -17.6975 -17.6918 -17.6407 -17.6227 -17.5552 -17.5401
   -17.4085 -17.3930 -17.3842 -17.3703 -10.0712  -9.8567  -9.6214  -9.4241
    -9.2934  -9.2525  -9.1715  -9.1027  -9.0525  -8.9395  -8.5184  -8.5027
    -8.3960  -8.2420  -8.1353  -8.0679  -7.9322  -7.7848  -7.7125  -7.6801
    -7.5897  -7.4742  -7.3741  -7.3297  -7.2019  -7.1018  -7.0512  -6.9644
    -6.8363  -6.7239  -6.5780  -6.5036  -6.3836  -6.3075  -6.2438  -6.0952
    -5.9702  -5.9393  -5.8781  -5.8100  -5.7054  -5.4516  -4.3969  -4.3089
    -4.2424  -4.0730  -3.8217  -3.7786  -3.5845  -3.5036  -3.4036  -3.3642
    -2.9167  -2.7883  -2.7406  -2.6538

     occupation numbers 
     1.0000   1.0000   1.0000   1.0000   1.0000   1.0000   1.0000   1.0000
     1.0000   1.0000   1.0000   1.0000   1.0000   1.0000   1.0000   1.0000
     1.0000   1.0000   1.0000   1.0000   1.0000   1.0000   1.0000   1.0000
     1.0000   1.0000   1.0000   1.0000   1.0000   1.0000   1.0000   1.0000
     1.0000   1.0000   1.0000   1.0000   1.0000   1.0000   1.0000   1.0000
     1.0000   1.0000   1.0000   1.0000   1.0000   1.0000   1.0000   1.0000
     1.0000   1.0000   1.0000   1.0000   1.0000   1.0000   1.0000   1.0000
     1.0000   1.0000   1.0000   1.0000   1.0000   1.0000   1.0000   1.0000
     1.0000   1.0000   1.0000   1.0000   1.0000   1.0000   0.0000   0.0000
     0.0000   0.0000   0.0000   0.0000   0.0000   0.0000   0.0000   0.0000
     0.0000   0.0000   0.0000   0.0000

          k = 0.1250-0.4330 0.0000 ( 52581 PWs)   bands (ev):

   -77.3267 -77.3266 -74.3849 -74.3848 -49.4757 -49.4745 -49.1585 -49.1581
   -48.7143 -48.7129 -46.3709 -46.3693 -46.0769 -46.0764 -45.7707 -45.7689
   -18.1953 -18.1836 -17.7753 -17.7719 -17.6023 -17.5844 -17.5721 -17.5570
   -17.4345 -17.4187 -17.3923 -17.3786 -10.0551  -9.8444  -9.5818  -9.3869
    -9.2983  -9.2455  -9.1554  -9.0478  -8.9880  -8.9187  -8.5539  -8.4629
    -8.3611  -8.3518  -8.1303  -8.0651  -7.9368  -7.8163  -7.7693  -7.6565
    -7.6165  -7.4800  -7.3628  -7.3369  -7.1996  -7.0397  -6.9853  -6.8935
    -6.8070  -6.7150  -6.6518  -6.4930  -6.4285  -6.3464  -6.2553  -6.1273
    -5.9782  -5.9396  -5.8813  -5.7739  -5.7269  -5.4787  -4.3652  -4.3121
    -4.2069  -4.1158  -3.8553  -3.8198  -3.5815  -3.5208  -3.3899  -3.3405
    -2.8937  -2.7841  -2.7184  -2.6669

     occupation numbers 
     1.0000   1.0000   1.0000   1.0000   1.0000   1.0000   1.0000   1.0000
     1.0000   1.0000   1.0000   1.0000   1.0000   1.0000   1.0000   1.0000
     1.0000   1.0000   1.0000   1.0000   1.0000   1.0000   1.0000   1.0000
     1.0000   1.0000   1.0000   1.0000   1.0000   1.0000   1.0000   1.0000
     1.0000   1.0000   1.0000   1.0000   1.0000   1.0000   1.0000   1.0000
     1.0000   1.0000   1.0000   1.0000   1.0000   1.0000   1.0000   1.0000
     1.0000   1.0000   1.0000   1.0000   1.0000   1.0000   1.0000   1.0000
     1.0000   1.0000   1.0000   1.0000   1.0000   1.0000   1.0000   1.0000
     1.0000   1.0000   1.0000   1.0000   1.0000   1.0000   0.0000   0.0000
     0.0000   0.0000   0.0000   0.0000   0.0000   0.0000   0.0000   0.0000
     0.0000   0.0000   0.0000   0.0000

          k = 0.1250-0.5052 0.0000 ( 52542 PWs)   bands (ev):

   -77.3267 -77.3266 -74.3849 -74.3848 -49.4755 -49.4746 -49.1585 -49.1582
   -48.7141 -48.7131 -46.3707 -46.3695 -46.0769 -46.0765 -45.7704 -45.7691
   -18.1245 -18.1140 -17.8494 -17.8477 -17.5828 -17.5677 -17.5644 -17.5468
   -17.4643 -17.4484 -17.3977 -17.3842 -10.0487  -9.8402  -9.5386  -9.3522
    -9.3001  -9.2445  -9.1086  -8.9819  -8.9468  -8.9137  -8.5643  -8.4787
    -8.4305  -8.3324  -8.1823  -8.1219  -7.9363  -7.8616  -7.8100  -7.6354
    -7.5966  -7.4672  -7.4132  -7.2671  -7.2141  -7.0042  -6.9201  -6.8606
    -6.7873  -6.7034  -6.6405  -6.4835  -6.4654  -6.3757  -6.2681  -6.1797
    -5.9635  -5.9400  -5.8800  -5.7480  -5.7263  -5.5044  -4.3305  -4.3108
    -4.2097  -4.1194  -3.8789  -3.8591  -3.5768  -3.5351  -3.3826  -3.3249
    -2.8764  -2.7833  -2.6971  -2.6654

     occupation numbers 
     1.0000   1.0000   1.0000   1.0000   1.0000   1.0000   1.0000   1.0000
     1.0000   1.0000   1.0000   1.0000   1.0000   1.0000   1.0000   1.0000
     1.0000   1.0000   1.0000   1.0000   1.0000   1.0000   1.0000   1.0000
     1.0000   1.0000   1.0000   1.0000   1.0000   1.0000   1.0000   1.0000
     1.0000   1.0000   1.0000   1.0000   1.0000   1.0000   1.0000   1.0000
     1.0000   1.0000   1.0000   1.0000   1.0000   1.0000   1.0000   1.0000
     1.0000   1.0000   1.0000   1.0000   1.0000   1.0000   1.0000   1.0000
     1.0000   1.0000   1.0000   1.0000   1.0000   1.0000   1.0000   1.0000
     1.0000   1.0000   1.0000   1.0000   1.0000   1.0000   0.0000   0.0000
     0.0000   0.0000   0.0000   0.0000   0.0000   0.0000   0.0000   0.0000
     0.0000   0.0000   0.0000   0.0000

          k = 0.1875-0.3969 0.0000 ( 52546 PWs)   bands (ev):

   -77.3267 -77.3266 -74.3849 -74.3848 -49.4757 -49.4745 -49.1585 -49.1581
   -48.7143 -48.7129 -46.3709 -46.3693 -46.0769 -46.0764 -45.7707 -45.7689
   -18.2064 -18.1946 -17.7478 -17.7446 -17.6088 -17.5910 -17.5903 -17.5752
   -17.4247 -17.4090 -17.3922 -17.3782 -10.0076  -9.7960  -9.6284  -9.4304
    -9.2848  -9.2444  -9.1523  -9.0949  -9.0172  -8.9303  -8.5587  -8.4817
    -8.3702  -8.3474  -8.1268  -8.0539  -7.9211  -7.8175  -7.7578  -7.6540
    -7.6437  -7.4857  -7.3486  -7.2604  -7.1804  -7.0862  -7.0007  -6.9160
    -6.8105  -6.6960  -6.6009  -6.5352  -6.4068  -6.3560  -6.2355  -6.1196
    -6.0059  -5.9439  -5.8716  -5.7738  -5.7222  -5.4716  -4.3745  -4.3205
    -4.2116  -4.0702  -3.8479  -3.7813  -3.6155  -3.5244  -3.3790  -3.3530
    -2.8929  -2.7589  -2.7272  -2.6623

     occupation numbers 
     1.0000   1.0000   1.0000   1.0000   1.0000   1.0000   1.0000   1.0000
     1.0000   1.0000   1.0000   1.0000   1.0000   1.0000   1.0000   1.0000
     1.0000   1.0000   1.0000   1.0000   1.0000   1.0000   1.0000   1.0000
     1.0000   1.0000   1.0000   1.0000   1.0000   1.0000   1.0000   1.0000
     1.0000   1.0000   1.0000   1.0000   1.0000   1.0000   1.0000   1.0000
     1.0000   1.0000   1.0000   1.0000   1.0000   1.0000   1.0000   1.0000
     1.0000   1.0000   1.0000   1.0000   1.0000   1.0000   1.0000   1.0000
     1.0000   1.0000   1.0000   1.0000   1.0000   1.0000   1.0000   1.0000
     1.0000   1.0000   1.0000   1.0000   1.0000   1.0000   0.0000   0.0000
     0.0000   0.0000   0.0000   0.0000   0.0000   0.0000   0.0000   0.0000
     0.0000   0.0000   0.0000   0.0000

          k = 0.1875-0.4691 0.0000 ( 52547 PWs)   bands (ev):

   -77.3267 -77.3266 -74.3849 -74.3848 -49.4755 -49.4746 -49.1585 -49.1582
   -48.7141 -48.7131 -46.3707 -46.3695 -46.0769 -46.0765 -45.7704 -45.7691
   -18.1336 -18.1233 -17.8196 -17.8185 -17.6088 -17.5938 -17.5715 -17.5539
   -17.4500 -17.4339 -17.4000 -17.3862  -9.9746  -9.7660  -9.5946  -9.3987
    -9.2821  -9.2270  -9.1375  -9.0478  -8.9659  -8.9365  -8.5823  -8.4874
    -8.4572  -8.3494  -8.1992  -8.1180  -7.9416  -7.8394  -7.7728  -7.6353
    -7.6109  -7.4746  -7.3111  -7.2477  -7.1700  -7.0447  -6.9479  -6.8639
    -6.7901  -6.6736  -6.6494  -6.5044  -6.4568  -6.3788  -6.2419  -6.1654
    -6.0037  -5.9410  -5.8670  -5.7510  -5.7150  -5.5002  -4.3306  -4.3227
    -4.1923  -4.0807  -3.8728  -3.8136  -3.6184  -3.5455  -3.3680  -3.3367
    -2.8546  -2.7639  -2.6955  -2.6683

     occupation numbers 
     1.0000   1.0000   1.0000   1.0000   1.0000   1.0000   1.0000   1.0000
     1.0000   1.0000   1.0000   1.0000   1.0000   1.0000   1.0000   1.0000
     1.0000   1.0000   1.0000   1.0000   1.0000   1.0000   1.0000   1.0000
     1.0000   1.0000   1.0000   1.0000   1.0000   1.0000   1.0000   1.0000
     1.0000   1.0000   1.0000   1.0000   1.0000   1.0000   1.0000   1.0000
     1.0000   1.0000   1.0000   1.0000   1.0000   1.0000   1.0000   1.0000
     1.0000   1.0000   1.0000   1.0000   1.0000   1.0000   1.0000   1.0000
     1.0000   1.0000   1.0000   1.0000   1.0000   1.0000   1.0000   1.0000
     1.0000   1.0000   1.0000   1.0000   1.0000   1.0000   0.0000   0.0000
     0.0000   0.0000   0.0000   0.0000   0.0000   0.0000   0.0000   0.0000
     0.0000   0.0000   0.0000   0.0000

          k = 0.1875-0.5413 0.0000 ( 52536 PWs)   bands (ev):

   -77.3267 -77.3266 -74.3849 -74.3848 -49.4754 -49.4748 -49.1584 -49.1582
   -48.7139 -48.7132 -46.3705 -46.3697 -46.0768 -46.0765 -45.7703 -45.7693
   -18.0721 -18.0628 -17.8813 -17.8806 -17.6181 -17.6032 -17.5392 -17.5216
   -17.4759 -17.4598 -17.4044 -17.3906  -9.9599  -9.7529  -9.5614  -9.3702
    -9.2816  -9.2151  -9.1039  -9.0132  -8.9763  -8.9179  -8.6118  -8.5444
    -8.4477  -8.3520  -8.2781  -8.1426  -8.0399  -7.8640  -7.6852  -7.6127
    -7.5892  -7.4518  -7.3790  -7.1870  -7.1535  -7.0080  -6.9277  -6.8501
    -6.8015  -6.6887  -6.5922  -6.5027  -6.4783  -6.3993  -6.2531  -6.1954
    -5.9863  -5.9406  -5.8684  -5.7558  -5.6820  -5.5240  -4.3259  -4.2898
    -4.2034  -4.0715  -3.8777  -3.8477  -3.6131  -3.5612  -3.3630  -3.3280
    -2.8264  -2.7716  -2.6914  -2.6520

     occupation numbers 
     1.0000   1.0000   1.0000   1.0000   1.0000   1.0000   1.0000   1.0000
     1.0000   1.0000   1.0000   1.0000   1.0000   1.0000   1.0000   1.0000
     1.0000   1.0000   1.0000   1.0000   1.0000   1.0000   1.0000   1.0000
     1.0000   1.0000   1.0000   1.0000   1.0000   1.0000   1.0000   1.0000
     1.0000   1.0000   1.0000   1.0000   1.0000   1.0000   1.0000   1.0000
     1.0000   1.0000   1.0000   1.0000   1.0000   1.0000   1.0000   1.0000
     1.0000   1.0000   1.0000   1.0000   1.0000   1.0000   1.0000   1.0000
     1.0000   1.0000   1.0000   1.0000   1.0000   1.0000   1.0000   1.0000
     1.0000   1.0000   1.0000   1.0000   1.0000   1.0000   0.0000   0.0000
     0.0000   0.0000   0.0000   0.0000   0.0000   0.0000   0.0000   0.0000
     0.0000   0.0000   0.0000   0.0000

          k = 0.2500-0.5052 0.0000 ( 52521 PWs)   bands (ev):

   -77.3267 -77.3266 -74.3849 -74.3848 -49.4753 -49.4748 -49.1584 -49.1582
   -48.7139 -48.7133 -46.3705 -46.3697 -46.0768 -46.0765 -45.7702 -45.7694
   -18.0666 -18.0580 -17.8699 -17.8681 -17.6415 -17.6263 -17.5401 -17.5226
   -17.4658 -17.4494 -17.4099 -17.3961  -9.8729  -9.6666  -9.6204  -9.4239
    -9.2659  -9.2031  -9.1067  -9.0580  -9.0056  -8.9378  -8.6200  -8.5709
    -8.4569  -8.3843  -8.2935  -8.1378  -8.0646  -7.8570  -7.6731  -7.6154
    -7.5622  -7.4391  -7.2997  -7.1752  -7.1223  -7.0428  -6.9218  -6.8387
    -6.8210  -6.7073  -6.5948  -6.5006  -6.4582  -6.3913  -6.2317  -6.1960
    -6.0410  -5.9359  -5.8492  -5.7582  -5.6651  -5.5286  -4.3318  -4.2870
    -4.1877  -4.0406  -3.8724  -3.8076  -3.6704  -3.5574  -3.3542  -3.3348
    -2.8041  -2.7558  -2.6903  -2.6485

     occupation numbers 
     1.0000   1.0000   1.0000   1.0000   1.0000   1.0000   1.0000   1.0000
     1.0000   1.0000   1.0000   1.0000   1.0000   1.0000   1.0000   1.0000
     1.0000   1.0000   1.0000   1.0000   1.0000   1.0000   1.0000   1.0000
     1.0000   1.0000   1.0000   1.0000   1.0000   1.0000   1.0000   1.0000
     1.0000   1.0000   1.0000   1.0000   1.0000   1.0000   1.0000   1.0000
     1.0000   1.0000   1.0000   1.0000   1.0000   1.0000   1.0000   1.0000
     1.0000   1.0000   1.0000   1.0000   1.0000   1.0000   1.0000   1.0000
     1.0000   1.0000   1.0000   1.0000   1.0000   1.0000   1.0000   1.0000
     1.0000   1.0000   1.0000   1.0000   1.0000   1.0000   0.0000   0.0000
     0.0000   0.0000   0.0000   0.0000   0.0000   0.0000   0.0000   0.0000
     0.0000   0.0000   0.0000   0.0000

     the Fermi energy is    -4.7673 ev

!    total energy              =    -512.11078134 Ry
     estimated scf accuracy    <          3.9E-14 Ry
     smearing contrib. (-TS)   =      -0.00000000 Ry
     internal energy E=F+TS    =    -512.11078134 Ry

     The total energy is F=E-TS. E is the sum of the following terms:
     one-electron contribution =   -1703.28101026 Ry
     hartree contribution      =     845.95369603 Ry
     xc contribution           =     -99.96455751 Ry
     ewald contribution        =     445.18109040 Ry

     total magnetization       =     0.00     0.00     6.03 Bohr mag/cell
     absolute magnetization    =     7.16 Bohr mag/cell

     convergence has been achieved in  18 iterations

     Writing all to output data dir ./cri3_90Ry_16x16x1.save/
 
     init_run     :     44.95s CPU     47.01s WALL (       1 calls)
     electrons    :   2863.88s CPU   2939.39s WALL (       1 calls)

     Called by init_run:
     wfcinit      :     43.65s CPU     45.64s WALL (       1 calls)
     wfcinit:atom :      0.37s CPU      0.65s WALL (      51 calls)
     wfcinit:wfcr :     41.52s CPU     42.84s WALL (      51 calls)
     potinit      :      0.19s CPU      0.20s WALL (       1 calls)
     hinit0       :      0.34s CPU      0.38s WALL (       1 calls)

     Called by electrons:
     c_bands      :   2531.06s CPU   2595.92s WALL (      18 calls)
     sum_band     :    331.00s CPU    341.25s WALL (      18 calls)
     v_of_rho     :      0.27s CPU      0.28s WALL (      19 calls)
     v_h          :      0.06s CPU      0.06s WALL (      19 calls)
     v_xc         :      0.21s CPU      0.22s WALL (      19 calls)
     mix_rho      :      1.36s CPU      1.39s WALL (      18 calls)

     Called by c_bands:
     init_us_2    :     18.48s CPU     18.75s WALL (    1887 calls)
     init_us_2:cp :     18.45s CPU     18.74s WALL (    1887 calls)
     cegterg      :   2297.61s CPU   2361.27s WALL (     959 calls)

     Called by sum_band:
     sum_band:wei :      0.03s CPU      0.03s WALL (      18 calls)
     sum_band:loo :    330.51s CPU    340.74s WALL (      18 calls)
     sum_band:buf :      5.13s CPU      5.17s WALL (     918 calls)
     sum_band:ini :      8.40s CPU      8.59s WALL (     918 calls)

     Called by *egterg:
     cdiaghg      :     55.72s CPU     65.65s WALL (    6892 calls)
     cegterg:over :    144.69s CPU    146.79s WALL (    5974 calls)
     cegterg:upda :    195.53s CPU    198.42s WALL (    5974 calls)
     cegterg:last :    223.19s CPU    225.76s WALL (    2439 calls)
     cdiaghg:chol :      3.49s CPU      3.67s WALL (    6892 calls)
     cdiaghg:inve :      2.06s CPU      2.17s WALL (    6892 calls)
     cdiaghg:para :      4.63s CPU      4.81s WALL (   13784 calls)
     h_psi        :   1662.51s CPU   1708.36s WALL (    6984 calls)
     g_psi        :      8.56s CPU      8.66s WALL (    5974 calls)

     Called by h_psi:
     h_psi:calbec :    128.70s CPU    130.39s WALL (    6984 calls)
     vloc_psi     :   1380.16s CPU   1422.04s WALL (    6984 calls)
     add_vuspsi   :    138.02s CPU    139.10s WALL (    6984 calls)

     General routines
     calbec       :    128.63s CPU    130.36s WALL (    6984 calls)
     fft          :      0.27s CPU      0.30s WALL (     165 calls)
     ffts         :      0.10s CPU      0.10s WALL (      72 calls)
     fftw         :   1075.38s CPU   1112.66s WALL ( 1161868 calls)
 
     Parallel routines
 
     PWSCF        :  48m31.86s CPU  50m28.30s WALL

 
   This run was terminated on:  16: 0: 7  10Jan2024            

=------------------------------------------------------------------------------=
   JOB DONE.
=------------------------------------------------------------------------------=
