
     Program PWSCF v.7.0 starts on 19Jan2024 at 10:10:52 

     This program is part of the open-source Quantum ESPRESSO suite
     for quantum simulation of materials; please cite
         "P. Giannozzi et al., J. Phys.:Condens. Matter 21 395502 (2009);
         "P. Giannozzi et al., J. Phys.:Condens. Matter 29 465901 (2017);
         "P. Giannozzi et al., J. Chem. Phys. 152 154105 (2020);
          URL http://www.quantum-espresso.org", 
     in publications or presentations arising from this work. More details at
     http://www.quantum-espresso.org/quote

     Parallel version (MPI), running on    12 processors

     MPI processes distributed on     1 nodes
     R & G space division:  proc/nbgrp/npool/nimage =      12
     169987 MiB available memory on the printing compute node when the environment starts
 
     Reading input from cri3-exp-soc_90Ry_k6x6x1.scf.in

     Current dimensions of program PWSCF are:
     Max number of different atomic species (ntypx) = 10
     Max number of k-points (npk) =  40000
     Max angular momentum in pseudopotentials (lmaxx) =  4

     Subspace diagonalization in iterative solution of the eigenvalue problem:
     one sub-group per band group will be used
     scalapack distributed-memory algorithm (size of sub-group:  3*  3 procs)

 
     Parallelization info
     --------------------
     sticks:   dense  smooth     PW     G-vecs:    dense   smooth      PW
     Min         348     348     93                35048    35048    4841
     Max         349     349     94                35057    35057    4846
     Sum        4177    4177   1123               420595   420595   58117
 
     Using Slab Decomposition
 


     bravais-lattice index     =            4
     lattice parameter (alat)  =      12.9767  a.u.
     unit-cell volume          =    3645.8815 (a.u.)^3
     number of atoms/cell      =            8
     number of atomic types    =            2
     number of electrons       =        70.00
     number of Kohn-Sham states=           84
     kinetic-energy cutoff     =      90.0000  Ry
     charge density cutoff     =     360.0000  Ry
     scf convergence threshold =      1.0E-13
     mixing beta               =       0.7000
     number of iterations used =            8  plain     mixing
     Exchange-correlation= PZ
                           (   1   1   0   0   0   0   0)
     Noncollinear calculation with spin-orbit


     celldm(1)=  12.976749  celldm(2)=   0.000000  celldm(3)=   1.926523
     celldm(4)=   0.000000  celldm(5)=   0.000000  celldm(6)=   0.000000

     crystal axes: (cart. coord. in units of alat)
               a(1) = (   1.000000   0.000000   0.000000 )  
               a(2) = (  -0.500000   0.866025   0.000000 )  
               a(3) = (   0.000000   0.000000   1.926523 )  

     reciprocal axes: (cart. coord. in units 2 pi/alat)
               b(1) = (  1.000000  0.577350  0.000000 )  
               b(2) = (  0.000000  1.154701  0.000000 )  
               b(3) = (  0.000000  0.000000  0.519070 )  


     PseudoPot. # 1 for Cr read from file:
     ./Cr_Alejandro.upf
     MD5 check sum: 19f8874af457815d5c8e16c7b8c57f71
     Pseudo is Norm-conserving + core correction, Zval = 14.0
     Generated using ONCVPSP code by D. R. Hamann
     Using radial grid of 1600 points, 10 beta functions with: 
                l(1) =   0
                l(2) =   0
                l(3) =   1
                l(4) =   1
                l(5) =   1
                l(6) =   1
                l(7) =   2
                l(8) =   2
                l(9) =   2
               l(10) =   2

     PseudoPot. # 2 for I  read from file:
     ./I_Alejandro.upf
     MD5 check sum: d0d4d45a39a9ecd37d4d9deb6bd296a3
     Pseudo is Norm-conserving + core correction, Zval =  7.0
     Generated using ONCVPSP code by D. R. Hamann
     Using radial grid of 1196 points, 10 beta functions with: 
                l(1) =   0
                l(2) =   0
                l(3) =   1
                l(4) =   1
                l(5) =   1
                l(6) =   1
                l(7) =   2
                l(8) =   2
                l(9) =   2
               l(10) =   2

     atomic species   valence    mass     pseudopotential
        Cr            14.00    51.99000     Cr( 1.00)
        I              7.00   126.90000     I ( 1.00)

     12 Sym. Ops., with inversion, found


                                    s                        frac. trans.

      isym =  1     identity                                     

 Time Reversal            0
 cryst.   s( 1) = (     1          0          0      )
                  (     0          1          0      )
                  (     0          0          1      )

 cart.    s( 1) = (  1.0000000  0.0000000  0.0000000 )
                  (  0.0000000  1.0000000  0.0000000 )
                  (  0.0000000  0.0000000  1.0000000 )


      isym =  2     180 deg rotation - cart. axis [0,1,0]        

 Time Reversal            1
 cryst.   s( 2) = (    -1          0          0      )
                  (     1          1          0      )
                  (     0          0         -1      )

 cart.    s( 2) = ( -1.0000000  0.0000000  0.0000000 )
                  (  0.0000000  1.0000000  0.0000000 )
                  (  0.0000000  0.0000000 -1.0000000 )


      isym =  3     120 deg rotation - cryst. axis [0,0,1]       

 Time Reversal            0
 cryst.   s( 3) = (     0          1          0      )
                  (    -1         -1          0      )
                  (     0          0          1      )

 cart.    s( 3) = ( -0.5000000 -0.8660254  0.0000000 )
                  (  0.8660254 -0.5000000  0.0000000 )
                  (  0.0000000  0.0000000  1.0000000 )


      isym =  4     120 deg rotation - cryst. axis [0,0,-1]      

 Time Reversal            0
 cryst.   s( 4) = (    -1         -1          0      )
                  (     1          0          0      )
                  (     0          0          1      )

 cart.    s( 4) = ( -0.5000000  0.8660254  0.0000000 )
                  ( -0.8660254 -0.5000000  0.0000000 )
                  (  0.0000000  0.0000000  1.0000000 )


      isym =  5     180 deg rotation - cryst. axis [1,-1,0]      

 Time Reversal            1
 cryst.   s( 5) = (     0         -1          0      )
                  (    -1          0          0      )
                  (     0          0         -1      )

 cart.    s( 5) = (  0.5000000 -0.8660254  0.0000000 )
                  ( -0.8660254 -0.5000000  0.0000000 )
                  (  0.0000000  0.0000000 -1.0000000 )


      isym =  6     180 deg rotation - cryst. axis [2,1,0]       

 Time Reversal            1
 cryst.   s( 6) = (     1          1          0      )
                  (     0         -1          0      )
                  (     0          0         -1      )

 cart.    s( 6) = (  0.5000000  0.8660254  0.0000000 )
                  (  0.8660254 -0.5000000  0.0000000 )
                  (  0.0000000  0.0000000 -1.0000000 )


      isym =  7     inversion                                    

 Time Reversal            0
 cryst.   s( 7) = (    -1          0          0      )
                  (     0         -1          0      )
                  (     0          0         -1      )

 cart.    s( 7) = ( -1.0000000  0.0000000  0.0000000 )
                  (  0.0000000 -1.0000000  0.0000000 )
                  (  0.0000000  0.0000000 -1.0000000 )


      isym =  8     inv. 180 deg rotation - cart. axis [0,1,0]   

 Time Reversal            1
 cryst.   s( 8) = (     1          0          0      )
                  (    -1         -1          0      )
                  (     0          0          1      )

 cart.    s( 8) = (  1.0000000  0.0000000  0.0000000 )
                  (  0.0000000 -1.0000000  0.0000000 )
                  (  0.0000000  0.0000000  1.0000000 )


      isym =  9     inv. 120 deg rotation - cryst. axis [0,0,1]  

 Time Reversal            0
 cryst.   s( 9) = (     0         -1          0      )
                  (     1          1          0      )
                  (     0          0         -1      )

 cart.    s( 9) = (  0.5000000  0.8660254  0.0000000 )
                  ( -0.8660254  0.5000000  0.0000000 )
                  (  0.0000000  0.0000000 -1.0000000 )


      isym = 10     inv. 120 deg rotation - cryst. axis [0,0,-1] 

 Time Reversal            0
 cryst.   s(10) = (     1          1          0      )
                  (    -1          0          0      )
                  (     0          0         -1      )

 cart.    s(10) = (  0.5000000 -0.8660254  0.0000000 )
                  (  0.8660254  0.5000000  0.0000000 )
                  (  0.0000000  0.0000000 -1.0000000 )


      isym = 11     inv. 180 deg rotation - cryst. axis [1,-1,0] 

 Time Reversal            1
 cryst.   s(11) = (     0          1          0      )
                  (     1          0          0      )
                  (     0          0          1      )

 cart.    s(11) = ( -0.5000000  0.8660254  0.0000000 )
                  (  0.8660254  0.5000000  0.0000000 )
                  (  0.0000000  0.0000000  1.0000000 )


      isym = 12     inv. 180 deg rotation - cryst. axis [2,1,0]  

 Time Reversal            1
 cryst.   s(12) = (    -1         -1          0      )
                  (     0          1          0      )
                  (     0          0          1      )

 cart.    s(12) = ( -0.5000000 -0.8660254  0.0000000 )
                  ( -0.8660254  0.5000000  0.0000000 )
                  (  0.0000000  0.0000000  1.0000000 )


     the magnetic double point group is D_3d (-3m)  [S_6 (-3)   ]
     using the double point group S_6 (-3)   
     there are 12 classes and  6 irreducible representations
     the character table:

       E     -E    C3    -C3   C3^2  -C3^2  i    -i    S6^5  -S6^5 S6    -S6  
                                                                              
G_4+   1.00 -1.00  0.50 -0.50  0.50 -0.50  1.00 -1.00  0.50 -0.50  0.50 -0.50
G_5+   1.00 -1.00  0.50 -0.50  0.50 -0.50  1.00 -1.00  0.50 -0.50  0.50 -0.50
G_6+   1.00 -1.00 -1.00  1.00 -1.00  1.00  1.00 -1.00 -1.00  1.00 -1.00  1.00
G_4-   1.00 -1.00  0.50 -0.50  0.50 -0.50 -1.00  1.00 -0.50  0.50 -0.50  0.50
G_5-   1.00 -1.00  0.50 -0.50  0.50 -0.50 -1.00  1.00 -0.50  0.50 -0.50  0.50
G_6-   1.00 -1.00 -1.00  1.00 -1.00  1.00 -1.00  1.00  1.00 -1.00  1.00 -1.00

     imaginary part

       E     -E    C3    -C3   C3^2  -C3^2  i    -i    S6^5  -S6^5 S6    -S6  
                                                                              
G_4+   0.00  0.00  0.87 -0.87 -0.87  0.87  0.00  0.00  0.87 -0.87 -0.87  0.87
G_5+   0.00  0.00 -0.87  0.87  0.87 -0.87  0.00  0.00 -0.87  0.87  0.87 -0.87
G_6+   0.00  0.00  0.00  0.00  0.00  0.00  0.00  0.00  0.00  0.00  0.00  0.00
G_4-   0.00  0.00  0.87 -0.87 -0.87  0.87  0.00  0.00 -0.87  0.87  0.87 -0.87
G_5-   0.00  0.00 -0.87  0.87  0.87 -0.87  0.00  0.00  0.87 -0.87 -0.87  0.87
G_6-   0.00  0.00  0.00  0.00  0.00  0.00  0.00  0.00  0.00  0.00  0.00  0.00

     the symmetry operations in each class and the name of the first element:

     E             1
          identity                                               
     -E           -1
          identity E                                             
     C3            2
          120 deg rotation - cryst. axis [0,0,1]                 
     -C3          -2
          120 deg rotation - cryst. axis [0,0,1] E               
     C3^2          3
          120 deg rotation - cryst. axis [0,0,-1]                
     -C3^2        -3
          120 deg rotation - cryst. axis [0,0,-1] E              
      i            4
          inversion                                              
     -i           -4
          inversion E                                            
     S6^5          5
          inv. 120 deg rotation - cryst. axis [0,0,1]            
     -S6^5        -5
          inv. 120 deg rotation - cryst. axis [0,0,1] E          
     S6            6
          inv. 120 deg rotation - cryst. axis [0,0,-1]           
     -S6          -6
          inv. 120 deg rotation - cryst. axis [0,0,-1] E         

   Cartesian axes

     site n.     atom                  positions (alat units)
         1           Cr  tau(   1) = (   0.5000000   0.2886751   0.0000000  )
         2           Cr  tau(   2) = (   0.0000000   0.5773503   0.0000000  )
         3           I   tau(   3) = (   0.3246775   0.5623579   0.2277694  )
         4           I   tau(   4) = (  -0.1753225   0.3036675   0.2277694  )
         5           I   tau(   5) = (   0.3506450   0.0000000   0.2277694  )
         6           I   tau(   6) = (   0.1753225   0.3036675  -0.2277694  )
         7           I   tau(   7) = (   0.6493550   0.0000000  -0.2277694  )
         8           I   tau(   8) = (  -0.3246775   0.5623579  -0.2277694  )

   Crystallographic axes

     site n.     atom                  positions (cryst. coord.)
         1           Cr  tau(   1) = (  0.6666667  0.3333333  0.0000000  )
         2           Cr  tau(   2) = (  0.3333333  0.6666667  0.0000000  )
         3           I   tau(   3) = (  0.6493550  0.6493550  0.1182283  )
         4           I   tau(   4) = (  0.0000000  0.3506450  0.1182283  )
         5           I   tau(   5) = (  0.3506450  0.0000000  0.1182283  )
         6           I   tau(   6) = (  0.3506450  0.3506450 -0.1182283  )
         7           I   tau(   7) = (  0.6493550  0.0000000 -0.1182283  )
         8           I   tau(   8) = (  0.0000000  0.6493550 -0.1182283  )

     number of k points=     7  Gaussian smearing, width (Ry)=  0.0050
                       cart. coord. in units 2pi/alat
        k(    1) = (   0.0000000   0.0000000   0.0000000), wk =   0.0277778
        k(    2) = (   0.0000000   0.1924501   0.0000000), wk =   0.1666667
        k(    3) = (   0.0000000   0.3849002   0.0000000), wk =   0.1666667
        k(    4) = (   0.0000000  -0.5773503   0.0000000), wk =   0.0833333
        k(    5) = (   0.1666667   0.2886751   0.0000000), wk =   0.1666667
        k(    6) = (   0.1666667   0.4811252   0.0000000), wk =   0.3333333
        k(    7) = (   0.3333333   0.5773503   0.0000000), wk =   0.0555556

                       cryst. coord.
        k(    1) = (   0.0000000   0.0000000   0.0000000), wk =   0.0277778
        k(    2) = (   0.0000000   0.1666667   0.0000000), wk =   0.1666667
        k(    3) = (   0.0000000   0.3333333   0.0000000), wk =   0.1666667
        k(    4) = (   0.0000000  -0.5000000   0.0000000), wk =   0.0833333
        k(    5) = (   0.1666667   0.1666667   0.0000000), wk =   0.1666667
        k(    6) = (   0.1666667   0.3333333   0.0000000), wk =   0.3333333
        k(    7) = (   0.3333333   0.3333333   0.0000000), wk =   0.0555556

     Dense  grid:   420595 G-vectors     FFT dimensions: (  80,  80, 160)

     Dynamical RAM for                 wfc:      11.23 MB

     Dynamical RAM for     wfc (w. buffer):      89.82 MB

     Dynamical RAM for           str. fact:       1.07 MB

     Dynamical RAM for           local pot:       0.00 MB

     Dynamical RAM for          nlocal pot:      18.18 MB

     Dynamical RAM for                qrad:       7.98 MB

     Dynamical RAM for          rho,v,vnew:      14.62 MB

     Dynamical RAM for               rhoin:       4.87 MB

     Dynamical RAM for            rho*nmix:      34.23 MB

     Dynamical RAM for           G-vectors:       2.27 MB

     Dynamical RAM for          h,s,v(r/c):       0.14 MB

     Dynamical RAM for          <psi|beta>:       0.70 MB

     Dynamical RAM for                 psi:      22.46 MB

     Dynamical RAM for                hpsi:      22.46 MB

     Dynamical RAM for      wfcinit/wfcrot:      17.82 MB

     Estimated static dynamical RAM per process >     145.89 MB

     Estimated max dynamical RAM per process >     225.87 MB

     Estimated total dynamical RAM >       2.65 GB
 ----2D----2D----2D----2D----2D----2D----2D----2D----2D----2D----2D----2D
  The code is running with the 2D cutoff
  Please refer to:
  Sohier, T., Calandra, M., & Mauri, F. (2017), 
  Density functional perturbation theory for gated two-dimensional heterostructu
 res:
  Theoretical developments and application to flexural phonons in graphene.
  Physical Review B, 96(7), 75448. https://doi.org/10.1103/PhysRevB.96.075448
 ----2D----2D----2D----2D----2D----2D----2D----2D----2D----2D----2D----2D
     Generating pointlists ...
     new r_m :   0.1637 (alat units)  2.1245 (a.u.) for type    1
     new r_m :   0.1637 (alat units)  2.1245 (a.u.) for type    2

     Initial potential from superposition of free atoms

     starting charge      69.9974, renormalised to      70.0000

     negative rho (up, down):  1.082E-07 1.489E-03

 ==============================================================================
     atom number    1 relative position :    0.5000   0.2887   0.0000
     charge :    12.703775  (integrated on a sphere of radius 0.164)
     magnetization :          0.000000    0.000000   12.368939
     magnetization/charge:    0.000000    0.000000    0.973643
     polar coord.: r, theta, phi [deg] :    12.368939    0.000000  360.000000

 ==============================================================================

 ==============================================================================
     atom number    2 relative position :    0.0000   0.5774   0.0000
     charge :    12.703775  (integrated on a sphere of radius 0.164)
     magnetization :          0.000000    0.000000   12.368939
     magnetization/charge:    0.000000    0.000000    0.973643
     polar coord.: r, theta, phi [deg] :    12.368939    0.000000  360.000000

 ==============================================================================

 ==============================================================================
     atom number    3 relative position :    0.3247   0.5624   0.2278
     charge :     4.088844  (integrated on a sphere of radius 0.164)
     magnetization :          0.000000    0.000000    0.080707
     magnetization/charge:    0.000000    0.000000    0.019738
     polar coord.: r, theta, phi [deg] :     0.080707    0.000000  360.000000

 ==============================================================================

 ==============================================================================
     atom number    4 relative position :   -0.1753   0.3037   0.2278
     charge :     4.088844  (integrated on a sphere of radius 0.164)
     magnetization :          0.000000    0.000000    0.080707
     magnetization/charge:    0.000000    0.000000    0.019738
     polar coord.: r, theta, phi [deg] :     0.080707    0.000000  360.000000

 ==============================================================================

 ==============================================================================
     atom number    5 relative position :    0.3506   0.0000   0.2278
     charge :     4.088844  (integrated on a sphere of radius 0.164)
     magnetization :          0.000000    0.000000    0.080707
     magnetization/charge:    0.000000    0.000000    0.019738
     polar coord.: r, theta, phi [deg] :     0.080707    0.000000  360.000000

 ==============================================================================

 ==============================================================================
     atom number    6 relative position :    0.1753   0.3037  -0.2278
     charge :     4.088844  (integrated on a sphere of radius 0.164)
     magnetization :          0.000000    0.000000    0.080707
     magnetization/charge:    0.000000    0.000000    0.019738
     polar coord.: r, theta, phi [deg] :     0.080707    0.000000  360.000000

 ==============================================================================

 ==============================================================================
     atom number    7 relative position :    0.6494   0.0000  -0.2278
     charge :     4.088844  (integrated on a sphere of radius 0.164)
     magnetization :          0.000000    0.000000    0.080707
     magnetization/charge:    0.000000    0.000000    0.019738
     polar coord.: r, theta, phi [deg] :     0.080707    0.000000  360.000000

 ==============================================================================

 ==============================================================================
     atom number    8 relative position :   -0.3247   0.5624  -0.2278
     charge :     4.088844  (integrated on a sphere of radius 0.164)
     magnetization :          0.000000    0.000000    0.080707
     magnetization/charge:    0.000000    0.000000    0.019738
     polar coord.: r, theta, phi [deg] :     0.080707    0.000000  360.000000

 ==============================================================================
     Starting wfcs are   88 randomized atomic wfcs

     total cpu time spent up to now is        5.6 secs

     Self-consistent Calculation

     iteration #  1     ecut=    90.00 Ry     beta= 0.70
     Davidson diagonalization with overlap

---- Real-time Memory Report at c_bands before calling an iterative solver
           301 MiB given to the printing process from OS
             0 MiB allocation reported by mallinfo(arena+hblkhd)
        167539 MiB available memory on the node where the printing process lives
------------------
     c_bands:  5 eigenvalues not converged
     c_bands:  1 eigenvalues not converged
     c_bands:  5 eigenvalues not converged
     c_bands:  1 eigenvalues not converged
     c_bands:  3 eigenvalues not converged
     ethr =  5.00E-06,  avg # of iterations = 30.1

     negative rho (up, down):  2.473E-08 1.249E-03

     total cpu time spent up to now is       70.9 secs

     total energy              =    -511.41404495 Ry
     estimated scf accuracy    <       4.45309800 Ry

     total magnetization       =     0.00     0.00     6.29 Bohr mag/cell
     absolute magnetization    =    10.90 Bohr mag/cell

     iteration #  2     ecut=    90.00 Ry     beta= 0.70
     Davidson diagonalization with overlap

---- Real-time Memory Report at c_bands before calling an iterative solver
           364 MiB given to the printing process from OS
             0 MiB allocation reported by mallinfo(arena+hblkhd)
        163197 MiB available memory on the node where the printing process lives
------------------
     ethr =  6.36E-03,  avg # of iterations =  6.6

     negative rho (up, down):  3.779E-12 9.766E-07

     total cpu time spent up to now is       88.5 secs

     total energy              =    -511.78537977 Ry
     estimated scf accuracy    <       0.59701838 Ry

     total magnetization       =    -0.00     0.00     6.30 Bohr mag/cell
     absolute magnetization    =    10.66 Bohr mag/cell

     iteration #  3     ecut=    90.00 Ry     beta= 0.70
     Davidson diagonalization with overlap

---- Real-time Memory Report at c_bands before calling an iterative solver
           383 MiB given to the printing process from OS
             0 MiB allocation reported by mallinfo(arena+hblkhd)
        161876 MiB available memory on the node where the printing process lives
------------------
     c_bands:  2 eigenvalues not converged
     c_bands:  1 eigenvalues not converged
     ethr =  8.53E-04,  avg # of iterations = 12.1

     total cpu time spent up to now is      112.1 secs

     total energy              =    -511.65702383 Ry
     estimated scf accuracy    <       3.51949190 Ry

     total magnetization       =     0.00    -0.00     6.00 Bohr mag/cell
     absolute magnetization    =     6.69 Bohr mag/cell

     iteration #  4     ecut=    90.00 Ry     beta= 0.70
     Davidson diagonalization with overlap

---- Real-time Memory Report at c_bands before calling an iterative solver
           391 MiB given to the printing process from OS
             0 MiB allocation reported by mallinfo(arena+hblkhd)
        162006 MiB available memory on the node where the printing process lives
------------------
     c_bands:  2 eigenvalues not converged
     ethr =  8.53E-04,  avg # of iterations = 15.1

     total cpu time spent up to now is      139.6 secs

     total energy              =    -512.08928866 Ry
     estimated scf accuracy    <       0.05137711 Ry

     total magnetization       =     0.00     0.00     6.06 Bohr mag/cell
     absolute magnetization    =     8.00 Bohr mag/cell

     iteration #  5     ecut=    90.00 Ry     beta= 0.70
     Davidson diagonalization with overlap

---- Real-time Memory Report at c_bands before calling an iterative solver
           396 MiB given to the printing process from OS
             0 MiB allocation reported by mallinfo(arena+hblkhd)
        161729 MiB available memory on the node where the printing process lives
------------------
     c_bands:  1 eigenvalues not converged
     ethr =  7.34E-05,  avg # of iterations = 11.9

     total cpu time spent up to now is      164.3 secs

     total energy              =    -512.10752245 Ry
     estimated scf accuracy    <       0.00913603 Ry

     total magnetization       =     0.00    -0.00     6.05 Bohr mag/cell
     absolute magnetization    =     7.66 Bohr mag/cell

     iteration #  6     ecut=    90.00 Ry     beta= 0.70
     Davidson diagonalization with overlap

---- Real-time Memory Report at c_bands before calling an iterative solver
           403 MiB given to the printing process from OS
             0 MiB allocation reported by mallinfo(arena+hblkhd)
        161356 MiB available memory on the node where the printing process lives
------------------
     ethr =  1.31E-05,  avg # of iterations =  2.3

     total cpu time spent up to now is      179.9 secs

     total energy              =    -512.11018266 Ry
     estimated scf accuracy    <       0.00143729 Ry

     total magnetization       =     0.00     0.00     6.04 Bohr mag/cell
     absolute magnetization    =     7.38 Bohr mag/cell

     iteration #  7     ecut=    90.00 Ry     beta= 0.70
     Davidson diagonalization with overlap

---- Real-time Memory Report at c_bands before calling an iterative solver
           407 MiB given to the printing process from OS
             0 MiB allocation reported by mallinfo(arena+hblkhd)
        161254 MiB available memory on the node where the printing process lives
------------------
     ethr =  2.05E-06,  avg # of iterations =  4.0

     total cpu time spent up to now is      197.9 secs

     total energy              =    -512.11061869 Ry
     estimated scf accuracy    <       0.00046721 Ry

     total magnetization       =    -0.00     0.00     6.03 Bohr mag/cell
     absolute magnetization    =     7.25 Bohr mag/cell

     iteration #  8     ecut=    90.00 Ry     beta= 0.70
     Davidson diagonalization with overlap

---- Real-time Memory Report at c_bands before calling an iterative solver
           413 MiB given to the printing process from OS
             0 MiB allocation reported by mallinfo(arena+hblkhd)
        161189 MiB available memory on the node where the printing process lives
------------------
     ethr =  6.67E-07,  avg # of iterations =  2.0

     total cpu time spent up to now is      214.7 secs

     total energy              =    -512.11077288 Ry
     estimated scf accuracy    <       0.00002901 Ry

     total magnetization       =    -0.00    -0.00     6.03 Bohr mag/cell
     absolute magnetization    =     7.16 Bohr mag/cell

     iteration #  9     ecut=    90.00 Ry     beta= 0.70
     Davidson diagonalization with overlap

---- Real-time Memory Report at c_bands before calling an iterative solver
           418 MiB given to the printing process from OS
             0 MiB allocation reported by mallinfo(arena+hblkhd)
        161134 MiB available memory on the node where the printing process lives
------------------
     ethr =  4.14E-08,  avg # of iterations =  4.7

     total cpu time spent up to now is      232.6 secs

     total energy              =    -512.11077914 Ry
     estimated scf accuracy    <       0.00000106 Ry

     total magnetization       =    -0.00    -0.00     6.03 Bohr mag/cell
     absolute magnetization    =     7.17 Bohr mag/cell

     iteration # 10     ecut=    90.00 Ry     beta= 0.70
     Davidson diagonalization with overlap

---- Real-time Memory Report at c_bands before calling an iterative solver
           423 MiB given to the printing process from OS
             0 MiB allocation reported by mallinfo(arena+hblkhd)
        161121 MiB available memory on the node where the printing process lives
------------------
     ethr =  1.51E-09,  avg # of iterations =  4.4

     total cpu time spent up to now is      254.2 secs

     total energy              =    -512.11077959 Ry
     estimated scf accuracy    <       0.00000087 Ry

     total magnetization       =    -0.00    -0.00     6.03 Bohr mag/cell
     absolute magnetization    =     7.16 Bohr mag/cell

     iteration # 11     ecut=    90.00 Ry     beta= 0.70
     Davidson diagonalization with overlap

---- Real-time Memory Report at c_bands before calling an iterative solver
           430 MiB given to the printing process from OS
             0 MiB allocation reported by mallinfo(arena+hblkhd)
        161030 MiB available memory on the node where the printing process lives
------------------
     ethr =  1.24E-09,  avg # of iterations =  2.1

     total cpu time spent up to now is      270.7 secs

     total energy              =    -512.11077984 Ry
     estimated scf accuracy    <       0.00000023 Ry

     total magnetization       =    -0.00     0.00     6.03 Bohr mag/cell
     absolute magnetization    =     7.16 Bohr mag/cell

     iteration # 12     ecut=    90.00 Ry     beta= 0.70
     Davidson diagonalization with overlap

---- Real-time Memory Report at c_bands before calling an iterative solver
           430 MiB given to the printing process from OS
             0 MiB allocation reported by mallinfo(arena+hblkhd)
        160980 MiB available memory on the node where the printing process lives
------------------
     ethr =  3.28E-10,  avg # of iterations =  2.0

     total cpu time spent up to now is      286.6 secs

     total energy              =    -512.11077987 Ry
     estimated scf accuracy    <       0.00000001 Ry

     total magnetization       =     0.00     0.00     6.03 Bohr mag/cell
     absolute magnetization    =     7.16 Bohr mag/cell

     iteration # 13     ecut=    90.00 Ry     beta= 0.70
     Davidson diagonalization with overlap

---- Real-time Memory Report at c_bands before calling an iterative solver
           431 MiB given to the printing process from OS
             0 MiB allocation reported by mallinfo(arena+hblkhd)
        161312 MiB available memory on the node where the printing process lives
------------------
     ethr =  1.61E-11,  avg # of iterations =  5.1

     total cpu time spent up to now is      306.2 secs

     total energy              =    -512.11077988 Ry
     estimated scf accuracy    <          2.2E-10 Ry

     total magnetization       =     0.00     0.00     6.03 Bohr mag/cell
     absolute magnetization    =     7.16 Bohr mag/cell

     iteration # 14     ecut=    90.00 Ry     beta= 0.70
     Davidson diagonalization with overlap

---- Real-time Memory Report at c_bands before calling an iterative solver
           432 MiB given to the printing process from OS
             0 MiB allocation reported by mallinfo(arena+hblkhd)
        160593 MiB available memory on the node where the printing process lives
------------------
     ethr =  3.16E-13,  avg # of iterations =  5.1

     total cpu time spent up to now is      329.8 secs

     total energy              =    -512.11077988 Ry
     estimated scf accuracy    <          1.3E-10 Ry

     total magnetization       =     0.00     0.00     6.03 Bohr mag/cell
     absolute magnetization    =     7.16 Bohr mag/cell

     iteration # 15     ecut=    90.00 Ry     beta= 0.70
     Davidson diagonalization with overlap

---- Real-time Memory Report at c_bands before calling an iterative solver
           434 MiB given to the printing process from OS
             0 MiB allocation reported by mallinfo(arena+hblkhd)
        160701 MiB available memory on the node where the printing process lives
------------------
     ethr =  1.92E-13,  avg # of iterations =  3.1

     total cpu time spent up to now is      348.9 secs

     total energy              =    -512.11077988 Ry
     estimated scf accuracy    <          4.9E-12 Ry

     total magnetization       =     0.00     0.00     6.03 Bohr mag/cell
     absolute magnetization    =     7.16 Bohr mag/cell

     iteration # 16     ecut=    90.00 Ry     beta= 0.70
     Davidson diagonalization with overlap

---- Real-time Memory Report at c_bands before calling an iterative solver
           434 MiB given to the printing process from OS
             0 MiB allocation reported by mallinfo(arena+hblkhd)
        160725 MiB available memory on the node where the printing process lives
------------------
     ethr =  1.00E-13,  avg # of iterations =  1.0

     total cpu time spent up to now is      363.0 secs

     total energy              =    -512.11077988 Ry
     estimated scf accuracy    <          9.3E-13 Ry

     total magnetization       =     0.00    -0.00     6.03 Bohr mag/cell
     absolute magnetization    =     7.16 Bohr mag/cell

     iteration # 17     ecut=    90.00 Ry     beta= 0.70
     Davidson diagonalization with overlap

---- Real-time Memory Report at c_bands before calling an iterative solver
           434 MiB given to the printing process from OS
             0 MiB allocation reported by mallinfo(arena+hblkhd)
        160447 MiB available memory on the node where the printing process lives
------------------
     ethr =  1.00E-13,  avg # of iterations =  1.0

 ==============================================================================
     atom number    1 relative position :    0.5000   0.2887   0.0000
     charge :    12.442652  (integrated on a sphere of radius 0.164)
     magnetization :         -0.000000   -0.000000    2.945292
     magnetization/charge:   -0.000000   -0.000000    0.236709
     polar coord.: r, theta, phi [deg] :     2.945292    0.000000  360.000000

 ==============================================================================

 ==============================================================================
     atom number    2 relative position :    0.0000   0.5774   0.0000
     charge :    12.442652  (integrated on a sphere of radius 0.164)
     magnetization :         -0.000000   -0.000000    2.945292
     magnetization/charge:   -0.000000   -0.000000    0.236709
     polar coord.: r, theta, phi [deg] :     2.945292    0.000000  360.000000

 ==============================================================================

 ==============================================================================
     atom number    3 relative position :    0.3247   0.5624   0.2278
     charge :     4.119850  (integrated on a sphere of radius 0.164)
     magnetization :         -0.000546   -0.000945   -0.050522
     magnetization/charge:   -0.000132   -0.000229   -0.012263
     polar coord.: r, theta, phi [deg] :     0.050534  178.762813 -120.000000

 ==============================================================================

 ==============================================================================
     atom number    4 relative position :   -0.1753   0.3037   0.2278
     charge :     4.119850  (integrated on a sphere of radius 0.164)
     magnetization :         -0.000546    0.000945   -0.050522
     magnetization/charge:   -0.000132    0.000229   -0.012263
     polar coord.: r, theta, phi [deg] :     0.050534  178.762813  120.000000

 ==============================================================================

 ==============================================================================
     atom number    5 relative position :    0.3506   0.0000   0.2278
     charge :     4.119850  (integrated on a sphere of radius 0.164)
     magnetization :          0.001091    0.000000   -0.050522
     magnetization/charge:    0.000265    0.000000   -0.012263
     polar coord.: r, theta, phi [deg] :     0.050534  178.762813    0.000000

 ==============================================================================

 ==============================================================================
     atom number    6 relative position :    0.1753   0.3037  -0.2278
     charge :     4.119850  (integrated on a sphere of radius 0.164)
     magnetization :         -0.000546   -0.000945   -0.050522
     magnetization/charge:   -0.000132   -0.000229   -0.012263
     polar coord.: r, theta, phi [deg] :     0.050534  178.762813 -120.000000

 ==============================================================================

 ==============================================================================
     atom number    7 relative position :    0.6494   0.0000  -0.2278
     charge :     4.119850  (integrated on a sphere of radius 0.164)
     magnetization :          0.001091    0.000000   -0.050522
     magnetization/charge:    0.000265    0.000000   -0.012263
     polar coord.: r, theta, phi [deg] :     0.050534  178.762813    0.000000

 ==============================================================================

 ==============================================================================
     atom number    8 relative position :   -0.3247   0.5624  -0.2278
     charge :     4.119850  (integrated on a sphere of radius 0.164)
     magnetization :         -0.000546    0.000945   -0.050522
     magnetization/charge:   -0.000132    0.000229   -0.012263
     polar coord.: r, theta, phi [deg] :     0.050534  178.762813  120.000000

 ==============================================================================

     total cpu time spent up to now is      377.1 secs

     End of self-consistent calculation

          k = 0.0000 0.0000 0.0000 ( 52593 PWs)   bands (ev):

   -77.3268 -77.3265 -74.3850 -74.3847 -49.4764 -49.4738 -49.1588 -49.1579
   -48.7151 -48.7121 -46.3719 -46.3684 -46.0773 -46.0761 -45.7718 -45.7678
   -18.4844 -18.4665 -17.7601 -17.7414 -17.4529 -17.4507 -17.4381 -17.4359
   -17.3590 -17.3583 -17.3437 -17.3430 -10.1423  -9.8994  -9.6505  -9.4540
    -9.3031  -9.2823  -9.1753  -9.0803  -9.0418  -9.0031  -8.7993  -8.6608
    -8.5799  -8.5130  -8.2563  -8.1336  -8.1161  -7.8897  -7.8671  -7.7364
    -7.6356  -7.5980  -7.5245  -7.3059  -7.2703  -7.1465  -6.9901  -6.9159
    -6.6627  -6.6016  -6.3935  -6.3935  -6.1421  -6.0683  -6.0567  -6.0379
    -5.9704  -5.9628  -5.8397  -5.6670  -5.3420  -5.2572  -4.4201  -4.3551
    -4.1427  -3.7717  -3.7373  -3.7369  -3.7110  -3.6450  -3.4143  -3.3616
    -2.8680  -2.8364  -2.6822  -2.4703

     occupation numbers 
     1.0000   1.0000   1.0000   1.0000   1.0000   1.0000   1.0000   1.0000
     1.0000   1.0000   1.0000   1.0000   1.0000   1.0000   1.0000   1.0000
     1.0000   1.0000   1.0000   1.0000   1.0000   1.0000   1.0000   1.0000
     1.0000   1.0000   1.0000   1.0000   1.0000   1.0000   1.0000   1.0000
     1.0000   1.0000   1.0000   1.0000   1.0000   1.0000   1.0000   1.0000
     1.0000   1.0000   1.0000   1.0000   1.0000   1.0000   1.0000   1.0000
     1.0000   1.0000   1.0000   1.0000   1.0000   1.0000   1.0000   1.0000
     1.0000   1.0000   1.0000   1.0000   1.0000   1.0000   1.0000   1.0000
     1.0000   1.0000   1.0000   1.0000   1.0000   1.0000   0.0000   0.0000
     0.0000   0.0000   0.0000   0.0000   0.0000   0.0000   0.0000   0.0000
     0.0000   0.0000   0.0000   0.0000

          k = 0.0000 0.1925 0.0000 ( 52592 PWs)   bands (ev):

   -77.3268 -77.3266 -74.3850 -74.3847 -49.4763 -49.4739 -49.1587 -49.1580
   -48.7149 -48.7123 -46.3717 -46.3686 -46.0772 -46.0761 -45.7716 -45.7680
   -18.4260 -18.4093 -17.7270 -17.7085 -17.5290 -17.5168 -17.4825 -17.4673
   -17.3655 -17.3651 -17.3509 -17.3499 -10.1362  -9.9061  -9.6435  -9.4477
    -9.2867  -9.2611  -9.1550  -9.1418  -9.1022  -9.0194  -8.6941  -8.6438
    -8.4403  -8.3301  -8.1921  -8.1429  -7.9698  -7.8408  -7.7355  -7.7089
    -7.5980  -7.5631  -7.5197  -7.3073  -7.2263  -7.1557  -7.0172  -6.9604
    -6.7737  -6.6257  -6.4687  -6.3677  -6.2970  -6.1735  -6.1090  -6.0358
    -5.9911  -5.9434  -5.8922  -5.6542  -5.6155  -5.3662  -4.4119  -4.3280
    -4.2116  -3.9280  -3.7979  -3.6602  -3.6522  -3.5379  -3.4404  -3.3865
    -2.8884  -2.8294  -2.7286  -2.5788

     occupation numbers 
     1.0000   1.0000   1.0000   1.0000   1.0000   1.0000   1.0000   1.0000
     1.0000   1.0000   1.0000   1.0000   1.0000   1.0000   1.0000   1.0000
     1.0000   1.0000   1.0000   1.0000   1.0000   1.0000   1.0000   1.0000
     1.0000   1.0000   1.0000   1.0000   1.0000   1.0000   1.0000   1.0000
     1.0000   1.0000   1.0000   1.0000   1.0000   1.0000   1.0000   1.0000
     1.0000   1.0000   1.0000   1.0000   1.0000   1.0000   1.0000   1.0000
     1.0000   1.0000   1.0000   1.0000   1.0000   1.0000   1.0000   1.0000
     1.0000   1.0000   1.0000   1.0000   1.0000   1.0000   1.0000   1.0000
     1.0000   1.0000   1.0000   1.0000   1.0000   1.0000   0.0000   0.0000
     0.0000   0.0000   0.0000   0.0000   0.0000   0.0000   0.0000   0.0000
     0.0000   0.0000   0.0000   0.0000

          k = 0.0000 0.3849 0.0000 ( 52554 PWs)   bands (ev):

   -77.3267 -77.3266 -74.3849 -74.3848 -49.4759 -49.4743 -49.1586 -49.1581
   -48.7145 -48.7127 -46.3711 -46.3691 -46.0770 -46.0763 -45.7710 -45.7686
   -18.2659 -18.2527 -17.7182 -17.7123 -17.6391 -17.6211 -17.5306 -17.5150
   -17.4136 -17.3981 -17.3865 -17.3732 -10.1191  -9.9053  -9.5812  -9.3871
    -9.3042  -9.2563  -9.1695  -9.0707  -9.0223  -8.9262  -8.5214  -8.4892
    -8.3715  -8.2249  -8.1766  -8.0974  -7.9451  -7.7401  -7.7194  -7.6294
    -7.5637  -7.4852  -7.4750  -7.3311  -7.2106  -7.0683  -7.0571  -6.9278
    -6.8300  -6.7947  -6.6509  -6.4750  -6.3566  -6.2818  -6.2630  -6.0929
    -5.9784  -5.9294  -5.8851  -5.8060  -5.7079  -5.4593  -4.3810  -4.2844
    -4.2419  -4.1428  -3.8467  -3.7871  -3.5684  -3.4557  -3.4464  -3.3511
    -2.9008  -2.8370  -2.7319  -2.6622

     occupation numbers 
     1.0000   1.0000   1.0000   1.0000   1.0000   1.0000   1.0000   1.0000
     1.0000   1.0000   1.0000   1.0000   1.0000   1.0000   1.0000   1.0000
     1.0000   1.0000   1.0000   1.0000   1.0000   1.0000   1.0000   1.0000
     1.0000   1.0000   1.0000   1.0000   1.0000   1.0000   1.0000   1.0000
     1.0000   1.0000   1.0000   1.0000   1.0000   1.0000   1.0000   1.0000
     1.0000   1.0000   1.0000   1.0000   1.0000   1.0000   1.0000   1.0000
     1.0000   1.0000   1.0000   1.0000   1.0000   1.0000   1.0000   1.0000
     1.0000   1.0000   1.0000   1.0000   1.0000   1.0000   1.0000   1.0000
     1.0000   1.0000   1.0000   1.0000   1.0000   1.0000   0.0000   0.0000
     0.0000   0.0000   0.0000   0.0000   0.0000   0.0000   0.0000   0.0000
     0.0000   0.0000   0.0000   0.0000

          k = 0.0000-0.5774 0.0000 ( 52578 PWs)   bands (ev):

   -77.3267 -77.3266 -74.3849 -74.3848 -49.4755 -49.4746 -49.1585 -49.1582
   -48.7141 -48.7131 -46.3707 -46.3695 -46.0769 -46.0765 -45.7705 -45.7691
   -18.1094 -18.0985 -17.8877 -17.8854 -17.5513 -17.5510 -17.5354 -17.5329
   -17.4856 -17.4701 -17.3980 -17.3852 -10.1251  -9.9164  -9.4942  -9.3472
    -9.2959  -9.2748  -9.0254  -8.9638  -8.8987  -8.8623  -8.5394  -8.4469
    -8.4178  -8.2143  -8.2109  -8.0245  -8.0119  -7.9360  -7.8366  -7.6766
    -7.6301  -7.4854  -7.3925  -7.3127  -7.3052  -7.0046  -6.8953  -6.8191
    -6.8181  -6.6638  -6.6634  -6.4887  -6.4338  -6.3513  -6.2812  -6.2228
    -5.9734  -5.9591  -5.8420  -5.7486  -5.7358  -5.5098  -4.3372  -4.2839
    -4.2736  -4.1388  -3.9053  -3.8835  -3.5776  -3.4540  -3.4289  -3.3115
    -2.9222  -2.7938  -2.6976  -2.6604

     occupation numbers 
     1.0000   1.0000   1.0000   1.0000   1.0000   1.0000   1.0000   1.0000
     1.0000   1.0000   1.0000   1.0000   1.0000   1.0000   1.0000   1.0000
     1.0000   1.0000   1.0000   1.0000   1.0000   1.0000   1.0000   1.0000
     1.0000   1.0000   1.0000   1.0000   1.0000   1.0000   1.0000   1.0000
     1.0000   1.0000   1.0000   1.0000   1.0000   1.0000   1.0000   1.0000
     1.0000   1.0000   1.0000   1.0000   1.0000   1.0000   1.0000   1.0000
     1.0000   1.0000   1.0000   1.0000   1.0000   1.0000   1.0000   1.0000
     1.0000   1.0000   1.0000   1.0000   1.0000   1.0000   1.0000   1.0000
     1.0000   1.0000   1.0000   1.0000   1.0000   1.0000   0.0000   0.0000
     0.0000   0.0000   0.0000   0.0000   0.0000   0.0000   0.0000   0.0000
     0.0000   0.0000   0.0000   0.0000

          k = 0.1667 0.2887 0.0000 ( 52609 PWs)   bands (ev):

   -77.3267 -77.3266 -74.3850 -74.3848 -49.4760 -49.4742 -49.1587 -49.1581
   -48.7146 -48.7126 -46.3713 -46.3689 -46.0771 -46.0763 -45.7711 -45.7685
   -18.3160 -18.3017 -17.6665 -17.6483 -17.6420 -17.6346 -17.5445 -17.5293
   -17.3933 -17.3781 -17.3771 -17.3630 -10.0815  -9.8632  -9.6440  -9.4470
    -9.2953  -9.2519  -9.1715  -9.1252  -9.0938  -8.9672  -8.5557  -8.4773
    -8.4303  -8.2491  -8.1325  -8.0520  -7.9103  -7.8580  -7.6995  -7.6472
    -7.5797  -7.5008  -7.3229  -7.3058  -7.2447  -7.1849  -7.0639  -6.9800
    -6.8377  -6.6879  -6.5302  -6.5075  -6.3566  -6.2768  -6.2252  -6.0919
    -5.9639  -5.9378  -5.8645  -5.8167  -5.6877  -5.4311  -4.4139  -4.3041
    -4.2673  -4.0286  -3.7818  -3.7705  -3.5857  -3.4965  -3.4171  -3.3817
    -2.9295  -2.7861  -2.7512  -2.6375

     occupation numbers 
     1.0000   1.0000   1.0000   1.0000   1.0000   1.0000   1.0000   1.0000
     1.0000   1.0000   1.0000   1.0000   1.0000   1.0000   1.0000   1.0000
     1.0000   1.0000   1.0000   1.0000   1.0000   1.0000   1.0000   1.0000
     1.0000   1.0000   1.0000   1.0000   1.0000   1.0000   1.0000   1.0000
     1.0000   1.0000   1.0000   1.0000   1.0000   1.0000   1.0000   1.0000
     1.0000   1.0000   1.0000   1.0000   1.0000   1.0000   1.0000   1.0000
     1.0000   1.0000   1.0000   1.0000   1.0000   1.0000   1.0000   1.0000
     1.0000   1.0000   1.0000   1.0000   1.0000   1.0000   1.0000   1.0000
     1.0000   1.0000   1.0000   1.0000   1.0000   1.0000   0.0000   0.0000
     0.0000   0.0000   0.0000   0.0000   0.0000   0.0000   0.0000   0.0000
     0.0000   0.0000   0.0000   0.0000

          k = 0.1667 0.4811 0.0000 ( 52543 PWs)   bands (ev):

   -77.3267 -77.3266 -74.3849 -74.3848 -49.4755 -49.4746 -49.1585 -49.1582
   -48.7141 -48.7131 -46.3707 -46.3695 -46.0769 -46.0765 -45.7705 -45.7691
   -18.1310 -18.1207 -17.8288 -17.8275 -17.6007 -17.5857 -17.5696 -17.5519
   -17.4543 -17.4382 -17.3991 -17.3853  -9.9992  -9.7906  -9.5748  -9.3809
    -9.2886  -9.2299  -9.1341  -9.0264  -8.9593  -8.9305  -8.5770  -8.4855
    -8.4491  -8.3463  -8.1940  -8.1206  -7.9394  -7.8454  -7.7836  -7.6239
    -7.6175  -7.4690  -7.3473  -7.2545  -7.1798  -7.0291  -6.9430  -6.8619
    -6.7858  -6.6841  -6.6472  -6.4958  -6.4622  -6.3814  -6.2505  -6.1683
    -5.9864  -5.9405  -5.8740  -5.7498  -5.7185  -5.5015  -4.3303  -4.3193
    -4.1956  -4.0941  -3.8745  -3.8294  -3.6009  -3.5460  -3.3720  -3.3330
    -2.8597  -2.7708  -2.6963  -2.6675

     occupation numbers 
     1.0000   1.0000   1.0000   1.0000   1.0000   1.0000   1.0000   1.0000
     1.0000   1.0000   1.0000   1.0000   1.0000   1.0000   1.0000   1.0000
     1.0000   1.0000   1.0000   1.0000   1.0000   1.0000   1.0000   1.0000
     1.0000   1.0000   1.0000   1.0000   1.0000   1.0000   1.0000   1.0000
     1.0000   1.0000   1.0000   1.0000   1.0000   1.0000   1.0000   1.0000
     1.0000   1.0000   1.0000   1.0000   1.0000   1.0000   1.0000   1.0000
     1.0000   1.0000   1.0000   1.0000   1.0000   1.0000   1.0000   1.0000
     1.0000   1.0000   1.0000   1.0000   1.0000   1.0000   1.0000   1.0000
     1.0000   1.0000   1.0000   1.0000   1.0000   1.0000   0.0000   0.0000
     0.0000   0.0000   0.0000   0.0000   0.0000   0.0000   0.0000   0.0000
     0.0000   0.0000   0.0000   0.0000

          k = 0.3333 0.5774 0.0000 ( 52536 PWs)   bands (ev):

   -77.3267 -77.3267 -74.3849 -74.3849 -49.4751 -49.4751 -49.1584 -49.1584
   -48.7136 -48.7136 -46.3701 -46.3701 -46.0767 -46.0767 -45.7698 -45.7698
   -17.9629 -17.9617 -17.9573 -17.9562 -17.6642 -17.6487 -17.4968 -17.4967
   -17.4797 -17.4796 -17.4188 -17.4051  -9.7413  -9.6860  -9.5347  -9.4908
    -9.2640  -9.1557  -9.1121  -9.0637  -9.0273  -8.9838  -8.6556  -8.5858
    -8.4725  -8.4396  -8.3211  -8.2022  -8.1070  -7.8666  -7.6928  -7.5571
    -7.3988  -7.3947  -7.3907  -7.1790  -7.0592  -6.9806  -6.9546  -6.8507
    -6.7991  -6.7647  -6.5493  -6.4860  -6.4287  -6.4225  -6.2402  -6.2036
    -6.0690  -5.9285  -5.8399  -5.7630  -5.5980  -5.5787  -4.3373  -4.2540
    -4.1889  -4.0064  -3.8423  -3.8238  -3.7145  -3.5641  -3.3486  -3.3320
    -2.7612  -2.7478  -2.7046  -2.6204

     occupation numbers 
     1.0000   1.0000   1.0000   1.0000   1.0000   1.0000   1.0000   1.0000
     1.0000   1.0000   1.0000   1.0000   1.0000   1.0000   1.0000   1.0000
     1.0000   1.0000   1.0000   1.0000   1.0000   1.0000   1.0000   1.0000
     1.0000   1.0000   1.0000   1.0000   1.0000   1.0000   1.0000   1.0000
     1.0000   1.0000   1.0000   1.0000   1.0000   1.0000   1.0000   1.0000
     1.0000   1.0000   1.0000   1.0000   1.0000   1.0000   1.0000   1.0000
     1.0000   1.0000   1.0000   1.0000   1.0000   1.0000   1.0000   1.0000
     1.0000   1.0000   1.0000   1.0000   1.0000   1.0000   1.0000   1.0000
     1.0000   1.0000   1.0000   1.0000   1.0000   1.0000   0.0000   0.0000
     0.0000   0.0000   0.0000   0.0000   0.0000   0.0000   0.0000   0.0000
     0.0000   0.0000   0.0000   0.0000

     the Fermi energy is    -4.7673 ev

!    total energy              =    -512.11077988 Ry
     estimated scf accuracy    <          4.4E-14 Ry
     smearing contrib. (-TS)   =      -0.00000000 Ry
     internal energy E=F+TS    =    -512.11077988 Ry

     The total energy is F=E-TS. E is the sum of the following terms:
     one-electron contribution =   -1703.28098007 Ry
     hartree contribution      =     845.95367147 Ry
     xc contribution           =     -99.96456202 Ry
     ewald contribution        =     445.18109075 Ry

     total magnetization       =    -0.00    -0.00     6.03 Bohr mag/cell
     absolute magnetization    =     7.16 Bohr mag/cell

     convergence has been achieved in  17 iterations

     Writing all to output data dir ./cri3_90Ry_k6x6x1.save/
 
     init_run     :      5.22s CPU      5.48s WALL (       1 calls)
     electrons    :    367.26s CPU    371.64s WALL (       1 calls)

     Called by init_run:
     wfcinit      :      4.52s CPU      4.72s WALL (       1 calls)
     wfcinit:atom :      0.05s CPU      0.09s WALL (       7 calls)
     wfcinit:wfcr :      4.18s CPU      4.28s WALL (       7 calls)
     potinit      :      0.22s CPU      0.23s WALL (       1 calls)
     hinit0       :      0.36s CPU      0.40s WALL (       1 calls)

     Called by electrons:
     c_bands      :    323.03s CPU    326.67s WALL (      17 calls)
     sum_band     :     42.04s CPU     42.57s WALL (      17 calls)
     v_of_rho     :      0.36s CPU      0.36s WALL (      18 calls)
     v_h          :      0.07s CPU      0.07s WALL (      18 calls)
     v_xc         :      0.28s CPU      0.29s WALL (      18 calls)
     mix_rho      :      1.64s CPU      1.67s WALL (      17 calls)

     Called by c_bands:
     init_us_2    :      2.43s CPU      2.46s WALL (     245 calls)
     init_us_2:cp :      2.43s CPU      2.46s WALL (     245 calls)
     cegterg      :    275.67s CPU    279.19s WALL (     123 calls)

     Called by sum_band:
     sum_band:wei :      0.00s CPU      0.00s WALL (      17 calls)
     sum_band:loo :     41.53s CPU     42.05s WALL (      17 calls)
     sum_band:buf :      0.98s CPU      0.98s WALL (     119 calls)
     sum_band:ini :      1.20s CPU      1.20s WALL (     119 calls)

     Called by *egterg:
     cdiaghg      :      5.44s CPU      6.23s WALL (     909 calls)
     cegterg:over :     19.11s CPU     19.21s WALL (     790 calls)
     cegterg:upda :     26.97s CPU     27.14s WALL (     790 calls)
     cegterg:last :     25.41s CPU     25.49s WALL (     323 calls)
     cdiaghg:chol :      0.37s CPU      0.38s WALL (     909 calls)
     cdiaghg:inve :      0.31s CPU      0.32s WALL (     909 calls)
     cdiaghg:para :      0.45s CPU      0.47s WALL (    1818 calls)
     h_psi        :    195.55s CPU    197.91s WALL (     920 calls)
     g_psi        :      1.20s CPU      1.20s WALL (     790 calls)

     Called by h_psi:
     h_psi:calbec :     18.91s CPU     19.04s WALL (     920 calls)
     vloc_psi     :    152.02s CPU    154.01s WALL (     920 calls)
     add_vuspsi   :     22.36s CPU     22.46s WALL (     920 calls)

     General routines
     calbec       :     18.90s CPU     19.04s WALL (     920 calls)
     fft          :      0.29s CPU      0.31s WALL (     156 calls)
     ffts         :      0.12s CPU      0.12s WALL (      68 calls)
     fftw         :    121.69s CPU    123.23s WALL (  149116 calls)
 
     Parallel routines
 
     PWSCF        :   6m12.97s CPU   6m21.65s WALL

 
   This run was terminated on:  10:17:13  19Jan2024            

=------------------------------------------------------------------------------=
   JOB DONE.
=------------------------------------------------------------------------------=
