
     Program PWSCF v.7.0 starts on 19Jan2024 at 11: 0:40 

     This program is part of the open-source Quantum ESPRESSO suite
     for quantum simulation of materials; please cite
         "P. Giannozzi et al., J. Phys.:Condens. Matter 21 395502 (2009);
         "P. Giannozzi et al., J. Phys.:Condens. Matter 29 465901 (2017);
         "P. Giannozzi et al., J. Chem. Phys. 152 154105 (2020);
          URL http://www.quantum-espresso.org", 
     in publications or presentations arising from this work. More details at
     http://www.quantum-espresso.org/quote

     Parallel version (MPI), running on    12 processors

     MPI processes distributed on     1 nodes
     R & G space division:  proc/nbgrp/npool/nimage =      12
     51892 MiB available memory on the printing compute node when the environment starts
 
     Reading input from cri3-exp-soc_50Ry_k8x8x1.scf.in

     Current dimensions of program PWSCF are:
     Max number of different atomic species (ntypx) = 10
     Max number of k-points (npk) =  40000
     Max angular momentum in pseudopotentials (lmaxx) =  4

     Subspace diagonalization in iterative solution of the eigenvalue problem:
     one sub-group per band group will be used
     scalapack distributed-memory algorithm (size of sub-group:  3*  3 procs)

 
     Parallelization info
     --------------------
     sticks:   dense  smooth     PW     G-vecs:    dense   smooth      PW
     Min         194     194     53                14518    14518    2061
     Max         195     195     54                14525    14525    2066
     Sum        2335    2335    637               174251   174251   24755
 
     Using Slab Decomposition
 


     bravais-lattice index     =            4
     lattice parameter (alat)  =      12.9767  a.u.
     unit-cell volume          =    3645.8815 (a.u.)^3
     number of atoms/cell      =            8
     number of atomic types    =            2
     number of electrons       =        70.00
     number of Kohn-Sham states=           84
     kinetic-energy cutoff     =      50.0000  Ry
     charge density cutoff     =     200.0000  Ry
     scf convergence threshold =      1.0E-13
     mixing beta               =       0.7000
     number of iterations used =            8  plain     mixing
     Exchange-correlation= PZ
                           (   1   1   0   0   0   0   0)
     Noncollinear calculation with spin-orbit


     celldm(1)=  12.976749  celldm(2)=   0.000000  celldm(3)=   1.926523
     celldm(4)=   0.000000  celldm(5)=   0.000000  celldm(6)=   0.000000

     crystal axes: (cart. coord. in units of alat)
               a(1) = (   1.000000   0.000000   0.000000 )  
               a(2) = (  -0.500000   0.866025   0.000000 )  
               a(3) = (   0.000000   0.000000   1.926523 )  

     reciprocal axes: (cart. coord. in units 2 pi/alat)
               b(1) = (  1.000000  0.577350  0.000000 )  
               b(2) = (  0.000000  1.154701  0.000000 )  
               b(3) = (  0.000000  0.000000  0.519070 )  


     PseudoPot. # 1 for Cr read from file:
     ./Cr_Alejandro.upf
     MD5 check sum: 19f8874af457815d5c8e16c7b8c57f71
     Pseudo is Norm-conserving + core correction, Zval = 14.0
     Generated using ONCVPSP code by D. R. Hamann
     Using radial grid of 1600 points, 10 beta functions with: 
                l(1) =   0
                l(2) =   0
                l(3) =   1
                l(4) =   1
                l(5) =   1
                l(6) =   1
                l(7) =   2
                l(8) =   2
                l(9) =   2
               l(10) =   2

     PseudoPot. # 2 for I  read from file:
     ./I_Alejandro.upf
     MD5 check sum: d0d4d45a39a9ecd37d4d9deb6bd296a3
     Pseudo is Norm-conserving + core correction, Zval =  7.0
     Generated using ONCVPSP code by D. R. Hamann
     Using radial grid of 1196 points, 10 beta functions with: 
                l(1) =   0
                l(2) =   0
                l(3) =   1
                l(4) =   1
                l(5) =   1
                l(6) =   1
                l(7) =   2
                l(8) =   2
                l(9) =   2
               l(10) =   2

     atomic species   valence    mass     pseudopotential
        Cr            14.00    51.99000     Cr( 1.00)
        I              7.00   126.90000     I ( 1.00)

     12 Sym. Ops., with inversion, found


                                    s                        frac. trans.

      isym =  1     identity                                     

 Time Reversal            0
 cryst.   s( 1) = (     1          0          0      )
                  (     0          1          0      )
                  (     0          0          1      )

 cart.    s( 1) = (  1.0000000  0.0000000  0.0000000 )
                  (  0.0000000  1.0000000  0.0000000 )
                  (  0.0000000  0.0000000  1.0000000 )


      isym =  2     180 deg rotation - cart. axis [0,1,0]        

 Time Reversal            1
 cryst.   s( 2) = (    -1          0          0      )
                  (     1          1          0      )
                  (     0          0         -1      )

 cart.    s( 2) = ( -1.0000000  0.0000000  0.0000000 )
                  (  0.0000000  1.0000000  0.0000000 )
                  (  0.0000000  0.0000000 -1.0000000 )


      isym =  3     120 deg rotation - cryst. axis [0,0,1]       

 Time Reversal            0
 cryst.   s( 3) = (     0          1          0      )
                  (    -1         -1          0      )
                  (     0          0          1      )

 cart.    s( 3) = ( -0.5000000 -0.8660254  0.0000000 )
                  (  0.8660254 -0.5000000  0.0000000 )
                  (  0.0000000  0.0000000  1.0000000 )


      isym =  4     120 deg rotation - cryst. axis [0,0,-1]      

 Time Reversal            0
 cryst.   s( 4) = (    -1         -1          0      )
                  (     1          0          0      )
                  (     0          0          1      )

 cart.    s( 4) = ( -0.5000000  0.8660254  0.0000000 )
                  ( -0.8660254 -0.5000000  0.0000000 )
                  (  0.0000000  0.0000000  1.0000000 )


      isym =  5     180 deg rotation - cryst. axis [1,-1,0]      

 Time Reversal            1
 cryst.   s( 5) = (     0         -1          0      )
                  (    -1          0          0      )
                  (     0          0         -1      )

 cart.    s( 5) = (  0.5000000 -0.8660254  0.0000000 )
                  ( -0.8660254 -0.5000000  0.0000000 )
                  (  0.0000000  0.0000000 -1.0000000 )


      isym =  6     180 deg rotation - cryst. axis [2,1,0]       

 Time Reversal            1
 cryst.   s( 6) = (     1          1          0      )
                  (     0         -1          0      )
                  (     0          0         -1      )

 cart.    s( 6) = (  0.5000000  0.8660254  0.0000000 )
                  (  0.8660254 -0.5000000  0.0000000 )
                  (  0.0000000  0.0000000 -1.0000000 )


      isym =  7     inversion                                    

 Time Reversal            0
 cryst.   s( 7) = (    -1          0          0      )
                  (     0         -1          0      )
                  (     0          0         -1      )

 cart.    s( 7) = ( -1.0000000  0.0000000  0.0000000 )
                  (  0.0000000 -1.0000000  0.0000000 )
                  (  0.0000000  0.0000000 -1.0000000 )


      isym =  8     inv. 180 deg rotation - cart. axis [0,1,0]   

 Time Reversal            1
 cryst.   s( 8) = (     1          0          0      )
                  (    -1         -1          0      )
                  (     0          0          1      )

 cart.    s( 8) = (  1.0000000  0.0000000  0.0000000 )
                  (  0.0000000 -1.0000000  0.0000000 )
                  (  0.0000000  0.0000000  1.0000000 )


      isym =  9     inv. 120 deg rotation - cryst. axis [0,0,1]  

 Time Reversal            0
 cryst.   s( 9) = (     0         -1          0      )
                  (     1          1          0      )
                  (     0          0         -1      )

 cart.    s( 9) = (  0.5000000  0.8660254  0.0000000 )
                  ( -0.8660254  0.5000000  0.0000000 )
                  (  0.0000000  0.0000000 -1.0000000 )


      isym = 10     inv. 120 deg rotation - cryst. axis [0,0,-1] 

 Time Reversal            0
 cryst.   s(10) = (     1          1          0      )
                  (    -1          0          0      )
                  (     0          0         -1      )

 cart.    s(10) = (  0.5000000 -0.8660254  0.0000000 )
                  (  0.8660254  0.5000000  0.0000000 )
                  (  0.0000000  0.0000000 -1.0000000 )


      isym = 11     inv. 180 deg rotation - cryst. axis [1,-1,0] 

 Time Reversal            1
 cryst.   s(11) = (     0          1          0      )
                  (     1          0          0      )
                  (     0          0          1      )

 cart.    s(11) = ( -0.5000000  0.8660254  0.0000000 )
                  (  0.8660254  0.5000000  0.0000000 )
                  (  0.0000000  0.0000000  1.0000000 )


      isym = 12     inv. 180 deg rotation - cryst. axis [2,1,0]  

 Time Reversal            1
 cryst.   s(12) = (    -1         -1          0      )
                  (     0          1          0      )
                  (     0          0          1      )

 cart.    s(12) = ( -0.5000000 -0.8660254  0.0000000 )
                  ( -0.8660254  0.5000000  0.0000000 )
                  (  0.0000000  0.0000000  1.0000000 )


     the magnetic double point group is D_3d (-3m)  [S_6 (-3)   ]
     using the double point group S_6 (-3)   
     there are 12 classes and  6 irreducible representations
     the character table:

       E     -E    C3    -C3   C3^2  -C3^2  i    -i    S6^5  -S6^5 S6    -S6  
                                                                              
G_4+   1.00 -1.00  0.50 -0.50  0.50 -0.50  1.00 -1.00  0.50 -0.50  0.50 -0.50
G_5+   1.00 -1.00  0.50 -0.50  0.50 -0.50  1.00 -1.00  0.50 -0.50  0.50 -0.50
G_6+   1.00 -1.00 -1.00  1.00 -1.00  1.00  1.00 -1.00 -1.00  1.00 -1.00  1.00
G_4-   1.00 -1.00  0.50 -0.50  0.50 -0.50 -1.00  1.00 -0.50  0.50 -0.50  0.50
G_5-   1.00 -1.00  0.50 -0.50  0.50 -0.50 -1.00  1.00 -0.50  0.50 -0.50  0.50
G_6-   1.00 -1.00 -1.00  1.00 -1.00  1.00 -1.00  1.00  1.00 -1.00  1.00 -1.00

     imaginary part

       E     -E    C3    -C3   C3^2  -C3^2  i    -i    S6^5  -S6^5 S6    -S6  
                                                                              
G_4+   0.00  0.00  0.87 -0.87 -0.87  0.87  0.00  0.00  0.87 -0.87 -0.87  0.87
G_5+   0.00  0.00 -0.87  0.87  0.87 -0.87  0.00  0.00 -0.87  0.87  0.87 -0.87
G_6+   0.00  0.00  0.00  0.00  0.00  0.00  0.00  0.00  0.00  0.00  0.00  0.00
G_4-   0.00  0.00  0.87 -0.87 -0.87  0.87  0.00  0.00 -0.87  0.87  0.87 -0.87
G_5-   0.00  0.00 -0.87  0.87  0.87 -0.87  0.00  0.00  0.87 -0.87 -0.87  0.87
G_6-   0.00  0.00  0.00  0.00  0.00  0.00  0.00  0.00  0.00  0.00  0.00  0.00

     the symmetry operations in each class and the name of the first element:

     E             1
          identity                                               
     -E           -1
          identity E                                             
     C3            2
          120 deg rotation - cryst. axis [0,0,1]                 
     -C3          -2
          120 deg rotation - cryst. axis [0,0,1] E               
     C3^2          3
          120 deg rotation - cryst. axis [0,0,-1]                
     -C3^2        -3
          120 deg rotation - cryst. axis [0,0,-1] E              
      i            4
          inversion                                              
     -i           -4
          inversion E                                            
     S6^5          5
          inv. 120 deg rotation - cryst. axis [0,0,1]            
     -S6^5        -5
          inv. 120 deg rotation - cryst. axis [0,0,1] E          
     S6            6
          inv. 120 deg rotation - cryst. axis [0,0,-1]           
     -S6          -6
          inv. 120 deg rotation - cryst. axis [0,0,-1] E         

   Cartesian axes

     site n.     atom                  positions (alat units)
         1           Cr  tau(   1) = (   0.5000000   0.2886751   0.0000000  )
         2           Cr  tau(   2) = (   0.0000000   0.5773503   0.0000000  )
         3           I   tau(   3) = (   0.3246775   0.5623579   0.2277694  )
         4           I   tau(   4) = (  -0.1753225   0.3036675   0.2277694  )
         5           I   tau(   5) = (   0.3506450   0.0000000   0.2277694  )
         6           I   tau(   6) = (   0.1753225   0.3036675  -0.2277694  )
         7           I   tau(   7) = (   0.6493550   0.0000000  -0.2277694  )
         8           I   tau(   8) = (  -0.3246775   0.5623579  -0.2277694  )

   Crystallographic axes

     site n.     atom                  positions (cryst. coord.)
         1           Cr  tau(   1) = (  0.6666667  0.3333333  0.0000000  )
         2           Cr  tau(   2) = (  0.3333333  0.6666667  0.0000000  )
         3           I   tau(   3) = (  0.6493550  0.6493550  0.1182283  )
         4           I   tau(   4) = (  0.0000000  0.3506450  0.1182283  )
         5           I   tau(   5) = (  0.3506450  0.0000000  0.1182283  )
         6           I   tau(   6) = (  0.3506450  0.3506450 -0.1182283  )
         7           I   tau(   7) = (  0.6493550  0.0000000 -0.1182283  )
         8           I   tau(   8) = (  0.0000000  0.6493550 -0.1182283  )

     number of k points=    10  Gaussian smearing, width (Ry)=  0.0050
                       cart. coord. in units 2pi/alat
        k(    1) = (   0.0000000   0.0000000   0.0000000), wk =   0.0156250
        k(    2) = (   0.0000000   0.1443376   0.0000000), wk =   0.0937500
        k(    3) = (   0.0000000   0.2886751   0.0000000), wk =   0.0937500
        k(    4) = (   0.0000000   0.4330127   0.0000000), wk =   0.0937500
        k(    5) = (   0.0000000  -0.5773503   0.0000000), wk =   0.0468750
        k(    6) = (   0.1250000   0.2165064   0.0000000), wk =   0.0937500
        k(    7) = (   0.1250000   0.3608439   0.0000000), wk =   0.1875000
        k(    8) = (   0.1250000   0.5051815   0.0000000), wk =   0.1875000
        k(    9) = (   0.2500000   0.4330127   0.0000000), wk =   0.0937500
        k(   10) = (   0.2500000   0.5773503   0.0000000), wk =   0.0937500

                       cryst. coord.
        k(    1) = (   0.0000000   0.0000000   0.0000000), wk =   0.0156250
        k(    2) = (   0.0000000   0.1250000   0.0000000), wk =   0.0937500
        k(    3) = (   0.0000000   0.2500000   0.0000000), wk =   0.0937500
        k(    4) = (   0.0000000   0.3750000   0.0000000), wk =   0.0937500
        k(    5) = (   0.0000000  -0.5000000   0.0000000), wk =   0.0468750
        k(    6) = (   0.1250000   0.1250000   0.0000000), wk =   0.0937500
        k(    7) = (   0.1250000   0.2500000   0.0000000), wk =   0.1875000
        k(    8) = (   0.1250000   0.3750000   0.0000000), wk =   0.1875000
        k(    9) = (   0.2500000   0.2500000   0.0000000), wk =   0.0937500
        k(   10) = (   0.2500000   0.3750000   0.0000000), wk =   0.0937500

     Dense  grid:   174251 G-vectors     FFT dimensions: (  60,  60, 120)

     Dynamical RAM for                 wfc:       4.65 MB

     Dynamical RAM for     wfc (w. buffer):      51.12 MB

     Dynamical RAM for           str. fact:       0.44 MB

     Dynamical RAM for           local pot:       0.00 MB

     Dynamical RAM for          nlocal pot:       7.52 MB

     Dynamical RAM for                qrad:       5.95 MB

     Dynamical RAM for          rho,v,vnew:       5.96 MB

     Dynamical RAM for               rhoin:       1.99 MB

     Dynamical RAM for            rho*nmix:      14.18 MB

     Dynamical RAM for           G-vectors:       0.94 MB

     Dynamical RAM for          h,s,v(r/c):       0.14 MB

     Dynamical RAM for          <psi|beta>:       0.70 MB

     Dynamical RAM for                 psi:       9.30 MB

     Dynamical RAM for                hpsi:       9.30 MB

     Dynamical RAM for      wfcinit/wfcrot:       7.48 MB

     Estimated static dynamical RAM per process >      76.79 MB

     Estimated max dynamical RAM per process >     110.40 MB

     Estimated total dynamical RAM >       1.29 GB
 ----2D----2D----2D----2D----2D----2D----2D----2D----2D----2D----2D----2D
  The code is running with the 2D cutoff
  Please refer to:
  Sohier, T., Calandra, M., & Mauri, F. (2017), 
  Density functional perturbation theory for gated two-dimensional heterostructu
 res:
  Theoretical developments and application to flexural phonons in graphene.
  Physical Review B, 96(7), 75448. https://doi.org/10.1103/PhysRevB.96.075448
 ----2D----2D----2D----2D----2D----2D----2D----2D----2D----2D----2D----2D

     Check: negative core charge=   -0.000023
     Generating pointlists ...
     new r_m :   0.1637 (alat units)  2.1245 (a.u.) for type    1
     new r_m :   0.1637 (alat units)  2.1245 (a.u.) for type    2

     Initial potential from superposition of free atoms

     starting charge      69.9974, renormalised to      70.0000

     negative rho (up, down):  1.997E-03 7.898E-03

 ==============================================================================
     atom number    1 relative position :    0.5000   0.2887   0.0000
     charge :    12.704715  (integrated on a sphere of radius 0.164)
     magnetization :          0.000000    0.000000   12.369701
     magnetization/charge:    0.000000    0.000000    0.973631
     polar coord.: r, theta, phi [deg] :    12.369701    0.000000  360.000000

 ==============================================================================

 ==============================================================================
     atom number    2 relative position :    0.0000   0.5774   0.0000
     charge :    12.704715  (integrated on a sphere of radius 0.164)
     magnetization :          0.000000    0.000000   12.369701
     magnetization/charge:    0.000000    0.000000    0.973631
     polar coord.: r, theta, phi [deg] :    12.369701    0.000000  360.000000

 ==============================================================================

 ==============================================================================
     atom number    3 relative position :    0.3247   0.5624   0.2278
     charge :     4.089251  (integrated on a sphere of radius 0.164)
     magnetization :          0.000000    0.000000    0.080715
     magnetization/charge:    0.000000    0.000000    0.019738
     polar coord.: r, theta, phi [deg] :     0.080715    0.000000  360.000000

 ==============================================================================

 ==============================================================================
     atom number    4 relative position :   -0.1753   0.3037   0.2278
     charge :     4.089251  (integrated on a sphere of radius 0.164)
     magnetization :          0.000000    0.000000    0.080715
     magnetization/charge:    0.000000    0.000000    0.019738
     polar coord.: r, theta, phi [deg] :     0.080715    0.000000  360.000000

 ==============================================================================

 ==============================================================================
     atom number    5 relative position :    0.3506   0.0000   0.2278
     charge :     4.089251  (integrated on a sphere of radius 0.164)
     magnetization :          0.000000    0.000000    0.080715
     magnetization/charge:    0.000000    0.000000    0.019738
     polar coord.: r, theta, phi [deg] :     0.080715    0.000000  360.000000

 ==============================================================================

 ==============================================================================
     atom number    6 relative position :    0.1753   0.3037  -0.2278
     charge :     4.089251  (integrated on a sphere of radius 0.164)
     magnetization :          0.000000    0.000000    0.080715
     magnetization/charge:    0.000000    0.000000    0.019738
     polar coord.: r, theta, phi [deg] :     0.080715    0.000000  360.000000

 ==============================================================================

 ==============================================================================
     atom number    7 relative position :    0.6494   0.0000  -0.2278
     charge :     4.089251  (integrated on a sphere of radius 0.164)
     magnetization :          0.000000    0.000000    0.080715
     magnetization/charge:    0.000000    0.000000    0.019738
     polar coord.: r, theta, phi [deg] :     0.080715    0.000000  360.000000

 ==============================================================================

 ==============================================================================
     atom number    8 relative position :   -0.3247   0.5624  -0.2278
     charge :     4.089251  (integrated on a sphere of radius 0.164)
     magnetization :          0.000000    0.000000    0.080715
     magnetization/charge:    0.000000    0.000000    0.019738
     polar coord.: r, theta, phi [deg] :     0.080715    0.000000  360.000000

 ==============================================================================
     Starting wfcs are   88 randomized atomic wfcs

     total cpu time spent up to now is        5.5 secs

     Self-consistent Calculation

     iteration #  1     ecut=    50.00 Ry     beta= 0.70
     Davidson diagonalization with overlap

---- Real-time Memory Report at c_bands before calling an iterative solver
           227 MiB given to the printing process from OS
             0 MiB allocation reported by mallinfo(arena+hblkhd)
         50532 MiB available memory on the node where the printing process lives
------------------
     c_bands:  5 eigenvalues not converged
     c_bands:  1 eigenvalues not converged
     c_bands:  1 eigenvalues not converged
     c_bands:  5 eigenvalues not converged
     c_bands:  1 eigenvalues not converged
     c_bands:  5 eigenvalues not converged
     ethr =  5.00E-06,  avg # of iterations = 32.4

     negative rho (up, down):  5.325E-04 3.329E-03

     total cpu time spent up to now is       65.5 secs

     total energy              =    -510.59101164 Ry
     estimated scf accuracy    <       5.43725413 Ry

     total magnetization       =     0.00    -0.00     6.11 Bohr mag/cell
     absolute magnetization    =    10.03 Bohr mag/cell

     iteration #  2     ecut=    50.00 Ry     beta= 0.70
     Davidson diagonalization with overlap

---- Real-time Memory Report at c_bands before calling an iterative solver
           274 MiB given to the printing process from OS
             0 MiB allocation reported by mallinfo(arena+hblkhd)
         50247 MiB available memory on the node where the printing process lives
------------------
     ethr =  7.77E-03,  avg # of iterations =  9.5

     negative rho (up, down):  2.664E-04 2.361E-03

     total cpu time spent up to now is       85.0 secs

     total energy              =    -509.68770025 Ry
     estimated scf accuracy    <       3.74333769 Ry

     total magnetization       =     0.00     0.00     7.04 Bohr mag/cell
     absolute magnetization    =    10.21 Bohr mag/cell

     iteration #  3     ecut=    50.00 Ry     beta= 0.70
     Davidson diagonalization with overlap

---- Real-time Memory Report at c_bands before calling an iterative solver
           283 MiB given to the printing process from OS
             0 MiB allocation reported by mallinfo(arena+hblkhd)
         50077 MiB available memory on the node where the printing process lives
------------------
     ethr =  5.35E-03,  avg # of iterations =  6.0

     negative rho (up, down):  2.903E-09 5.898E-03

     total cpu time spent up to now is      104.4 secs

     total energy              =    -510.94384243 Ry
     estimated scf accuracy    <       6.35639495 Ry

     total magnetization       =     0.00    -0.00     6.00 Bohr mag/cell
     absolute magnetization    =     6.28 Bohr mag/cell

     iteration #  4     ecut=    50.00 Ry     beta= 0.70
     Davidson diagonalization with overlap

---- Real-time Memory Report at c_bands before calling an iterative solver
           288 MiB given to the printing process from OS
             0 MiB allocation reported by mallinfo(arena+hblkhd)
         50065 MiB available memory on the node where the printing process lives
------------------
     ethr =  5.35E-03,  avg # of iterations =  7.6

     negative rho (up, down):  1.024E-06 4.778E-03

     total cpu time spent up to now is      121.5 secs

     total energy              =    -511.43488546 Ry
     estimated scf accuracy    <       0.34075671 Ry

     total magnetization       =     0.00     0.00     6.03 Bohr mag/cell
     absolute magnetization    =     7.65 Bohr mag/cell

     iteration #  5     ecut=    50.00 Ry     beta= 0.70
     Davidson diagonalization with overlap

---- Real-time Memory Report at c_bands before calling an iterative solver
           291 MiB given to the printing process from OS
             0 MiB allocation reported by mallinfo(arena+hblkhd)
         50045 MiB available memory on the node where the printing process lives
------------------
     ethr =  4.87E-04,  avg # of iterations = 13.4

     negative rho (up, down):  6.870E-07 4.241E-03

     total cpu time spent up to now is      144.2 secs

     total energy              =    -511.52400020 Ry
     estimated scf accuracy    <       0.01170728 Ry

     total magnetization       =     0.00    -0.00     6.04 Bohr mag/cell
     absolute magnetization    =     7.39 Bohr mag/cell

     iteration #  6     ecut=    50.00 Ry     beta= 0.70
     Davidson diagonalization with overlap

---- Real-time Memory Report at c_bands before calling an iterative solver
           295 MiB given to the printing process from OS
             0 MiB allocation reported by mallinfo(arena+hblkhd)
         50018 MiB available memory on the node where the printing process lives
------------------
     ethr =  1.67E-05,  avg # of iterations =  6.3

     negative rho (up, down):  0.000E+00 2.917E-03

     total cpu time spent up to now is      161.5 secs

     total energy              =    -511.52729391 Ry
     estimated scf accuracy    <       0.00543015 Ry

     total magnetization       =    -0.00    -0.00     6.03 Bohr mag/cell
     absolute magnetization    =     7.31 Bohr mag/cell

     iteration #  7     ecut=    50.00 Ry     beta= 0.70
     Davidson diagonalization with overlap

---- Real-time Memory Report at c_bands before calling an iterative solver
           297 MiB given to the printing process from OS
             0 MiB allocation reported by mallinfo(arena+hblkhd)
         49998 MiB available memory on the node where the printing process lives
------------------
     ethr =  7.76E-06,  avg # of iterations =  2.0

     negative rho (up, down):  0.000E+00 2.139E-03

     total cpu time spent up to now is      174.8 secs

     total energy              =    -511.52768732 Ry
     estimated scf accuracy    <       0.00140279 Ry

     total magnetization       =     0.00     0.00     6.03 Bohr mag/cell
     absolute magnetization    =     7.18 Bohr mag/cell

     iteration #  8     ecut=    50.00 Ry     beta= 0.70
     Davidson diagonalization with overlap

---- Real-time Memory Report at c_bands before calling an iterative solver
           300 MiB given to the printing process from OS
             0 MiB allocation reported by mallinfo(arena+hblkhd)
         49978 MiB available memory on the node where the printing process lives
------------------
     ethr =  2.00E-06,  avg # of iterations =  2.7

     negative rho (up, down):  0.000E+00 2.194E-03

     total cpu time spent up to now is      191.3 secs

     total energy              =    -511.52790103 Ry
     estimated scf accuracy    <       0.00088699 Ry

     total magnetization       =    -0.00    -0.00     6.02 Bohr mag/cell
     absolute magnetization    =     7.06 Bohr mag/cell

     iteration #  9     ecut=    50.00 Ry     beta= 0.70
     Davidson diagonalization with overlap

---- Real-time Memory Report at c_bands before calling an iterative solver
           303 MiB given to the printing process from OS
             0 MiB allocation reported by mallinfo(arena+hblkhd)
         49952 MiB available memory on the node where the printing process lives
------------------
     ethr =  1.27E-06,  avg # of iterations =  2.1

     negative rho (up, down):  0.000E+00 2.222E-03

     total cpu time spent up to now is      205.5 secs

     total energy              =    -511.52803795 Ry
     estimated scf accuracy    <       0.00001546 Ry

     total magnetization       =    -0.00    -0.00     6.03 Bohr mag/cell
     absolute magnetization    =     7.08 Bohr mag/cell

     iteration # 10     ecut=    50.00 Ry     beta= 0.70
     Davidson diagonalization with overlap

---- Real-time Memory Report at c_bands before calling an iterative solver
           306 MiB given to the printing process from OS
             0 MiB allocation reported by mallinfo(arena+hblkhd)
         49929 MiB available memory on the node where the printing process lives
------------------
     ethr =  2.21E-08,  avg # of iterations =  6.1

     negative rho (up, down):  0.000E+00 2.250E-03

     total cpu time spent up to now is      224.7 secs

     total energy              =    -511.52803642 Ry
     estimated scf accuracy    <       0.00002539 Ry

     total magnetization       =     0.00     0.00     6.03 Bohr mag/cell
     absolute magnetization    =     7.08 Bohr mag/cell

     iteration # 11     ecut=    50.00 Ry     beta= 0.70
     Davidson diagonalization with overlap

---- Real-time Memory Report at c_bands before calling an iterative solver
           311 MiB given to the printing process from OS
             0 MiB allocation reported by mallinfo(arena+hblkhd)
         49904 MiB available memory on the node where the printing process lives
------------------
     ethr =  2.21E-08,  avg # of iterations =  2.0

     negative rho (up, down):  0.000E+00 2.222E-03

     total cpu time spent up to now is      239.1 secs

     total energy              =    -511.52803908 Ry
     estimated scf accuracy    <       0.00000108 Ry

     total magnetization       =    -0.00     0.00     6.03 Bohr mag/cell
     absolute magnetization    =     7.08 Bohr mag/cell

     iteration # 12     ecut=    50.00 Ry     beta= 0.70
     Davidson diagonalization with overlap

---- Real-time Memory Report at c_bands before calling an iterative solver
           312 MiB given to the printing process from OS
             0 MiB allocation reported by mallinfo(arena+hblkhd)
         49904 MiB available memory on the node where the printing process lives
------------------
     ethr =  1.54E-09,  avg # of iterations =  3.9

     negative rho (up, down):  0.000E+00 2.222E-03

     total cpu time spent up to now is      256.0 secs

     total energy              =    -511.52803925 Ry
     estimated scf accuracy    <       0.00000007 Ry

     total magnetization       =    -0.00    -0.00     6.03 Bohr mag/cell
     absolute magnetization    =     7.08 Bohr mag/cell

     iteration # 13     ecut=    50.00 Ry     beta= 0.70
     Davidson diagonalization with overlap

---- Real-time Memory Report at c_bands before calling an iterative solver
           313 MiB given to the printing process from OS
             0 MiB allocation reported by mallinfo(arena+hblkhd)
         49903 MiB available memory on the node where the printing process lives
------------------
     ethr =  1.02E-10,  avg # of iterations =  4.3

     negative rho (up, down):  0.000E+00 2.222E-03

     total cpu time spent up to now is      273.3 secs

     total energy              =    -511.52803924 Ry
     estimated scf accuracy    <          8.8E-09 Ry

     total magnetization       =    -0.00    -0.00     6.03 Bohr mag/cell
     absolute magnetization    =     7.08 Bohr mag/cell

     iteration # 14     ecut=    50.00 Ry     beta= 0.70
     Davidson diagonalization with overlap

---- Real-time Memory Report at c_bands before calling an iterative solver
           315 MiB given to the printing process from OS
             0 MiB allocation reported by mallinfo(arena+hblkhd)
         49903 MiB available memory on the node where the printing process lives
------------------
     ethr =  1.25E-11,  avg # of iterations =  3.3

     negative rho (up, down):  0.000E+00 2.222E-03

     total cpu time spent up to now is      290.1 secs

     total energy              =    -511.52803924 Ry
     estimated scf accuracy    <          9.4E-10 Ry

     total magnetization       =     0.00     0.00     6.03 Bohr mag/cell
     absolute magnetization    =     7.08 Bohr mag/cell

     iteration # 15     ecut=    50.00 Ry     beta= 0.70
     Davidson diagonalization with overlap

---- Real-time Memory Report at c_bands before calling an iterative solver
           316 MiB given to the printing process from OS
             0 MiB allocation reported by mallinfo(arena+hblkhd)
         49899 MiB available memory on the node where the printing process lives
------------------
     ethr =  1.34E-12,  avg # of iterations =  3.9

     negative rho (up, down):  0.000E+00 2.222E-03

     total cpu time spent up to now is      307.1 secs

     total energy              =    -511.52803924 Ry
     estimated scf accuracy    <          1.2E-10 Ry

     total magnetization       =    -0.00    -0.00     6.03 Bohr mag/cell
     absolute magnetization    =     7.08 Bohr mag/cell

     iteration # 16     ecut=    50.00 Ry     beta= 0.70
     Davidson diagonalization with overlap

---- Real-time Memory Report at c_bands before calling an iterative solver
           318 MiB given to the printing process from OS
             0 MiB allocation reported by mallinfo(arena+hblkhd)
         49888 MiB available memory on the node where the printing process lives
------------------
     ethr =  1.65E-13,  avg # of iterations =  3.8

     negative rho (up, down):  0.000E+00 2.222E-03

     total cpu time spent up to now is      323.7 secs

     total energy              =    -511.52803924 Ry
     estimated scf accuracy    <          1.1E-11 Ry

     total magnetization       =     0.00     0.00     6.03 Bohr mag/cell
     absolute magnetization    =     7.08 Bohr mag/cell

     iteration # 17     ecut=    50.00 Ry     beta= 0.70
     Davidson diagonalization with overlap

---- Real-time Memory Report at c_bands before calling an iterative solver
           320 MiB given to the printing process from OS
             0 MiB allocation reported by mallinfo(arena+hblkhd)
         49887 MiB available memory on the node where the printing process lives
------------------
     ethr =  1.00E-13,  avg # of iterations =  1.9

     negative rho (up, down):  0.000E+00 2.222E-03

     total cpu time spent up to now is      337.2 secs

     total energy              =    -511.52803924 Ry
     estimated scf accuracy    <          8.3E-13 Ry

     total magnetization       =     0.00     0.00     6.03 Bohr mag/cell
     absolute magnetization    =     7.08 Bohr mag/cell

     iteration # 18     ecut=    50.00 Ry     beta= 0.70
     Davidson diagonalization with overlap

---- Real-time Memory Report at c_bands before calling an iterative solver
           320 MiB given to the printing process from OS
             0 MiB allocation reported by mallinfo(arena+hblkhd)
         49889 MiB available memory on the node where the printing process lives
------------------
     ethr =  1.00E-13,  avg # of iterations =  1.0

     negative rho (up, down):  0.000E+00 2.222E-03

 ==============================================================================
     atom number    1 relative position :    0.5000   0.2887   0.0000
     charge :    12.416975  (integrated on a sphere of radius 0.164)
     magnetization :         -0.000000   -0.000000    2.896028
     magnetization/charge:   -0.000000   -0.000000    0.233231
     polar coord.: r, theta, phi [deg] :     2.896028    0.000000  360.000000

 ==============================================================================

 ==============================================================================
     atom number    2 relative position :    0.0000   0.5774   0.0000
     charge :    12.416975  (integrated on a sphere of radius 0.164)
     magnetization :         -0.000000    0.000000    2.896028
     magnetization/charge:   -0.000000    0.000000    0.233231
     polar coord.: r, theta, phi [deg] :     2.896028    0.000000  360.000000

 ==============================================================================

 ==============================================================================
     atom number    3 relative position :    0.3247   0.5624   0.2278
     charge :     4.118961  (integrated on a sphere of radius 0.164)
     magnetization :         -0.000539   -0.000934   -0.045262
     magnetization/charge:   -0.000131   -0.000227   -0.010989
     polar coord.: r, theta, phi [deg] :     0.045275  178.635267 -120.000000

 ==============================================================================

 ==============================================================================
     atom number    4 relative position :   -0.1753   0.3037   0.2278
     charge :     4.118961  (integrated on a sphere of radius 0.164)
     magnetization :         -0.000539    0.000934   -0.045262
     magnetization/charge:   -0.000131    0.000227   -0.010989
     polar coord.: r, theta, phi [deg] :     0.045275  178.635267  120.000000

 ==============================================================================

 ==============================================================================
     atom number    5 relative position :    0.3506   0.0000   0.2278
     charge :     4.118961  (integrated on a sphere of radius 0.164)
     magnetization :          0.001078   -0.000000   -0.045262
     magnetization/charge:    0.000262   -0.000000   -0.010989
     polar coord.: r, theta, phi [deg] :     0.045275  178.635267    0.000000

 ==============================================================================

 ==============================================================================
     atom number    6 relative position :    0.1753   0.3037  -0.2278
     charge :     4.118961  (integrated on a sphere of radius 0.164)
     magnetization :         -0.000539   -0.000934   -0.045262
     magnetization/charge:   -0.000131   -0.000227   -0.010989
     polar coord.: r, theta, phi [deg] :     0.045275  178.635267 -120.000000

 ==============================================================================

 ==============================================================================
     atom number    7 relative position :    0.6494   0.0000  -0.2278
     charge :     4.118961  (integrated on a sphere of radius 0.164)
     magnetization :          0.001078   -0.000000   -0.045262
     magnetization/charge:    0.000262   -0.000000   -0.010989
     polar coord.: r, theta, phi [deg] :     0.045275  178.635267    0.000000

 ==============================================================================

 ==============================================================================
     atom number    8 relative position :   -0.3247   0.5624  -0.2278
     charge :     4.118961  (integrated on a sphere of radius 0.164)
     magnetization :         -0.000539    0.000934   -0.045262
     magnetization/charge:   -0.000131    0.000227   -0.010989
     polar coord.: r, theta, phi [deg] :     0.045275  178.635267  120.000000

 ==============================================================================

     total cpu time spent up to now is      349.6 secs

     End of self-consistent calculation

          k = 0.0000 0.0000 0.0000 ( 21831 PWs)   bands (ev):

   -78.4276 -78.4231 -75.6341 -75.6295 -50.5313 -50.5299 -50.2162 -50.2152
   -49.7662 -49.7656 -47.5348 -47.5339 -47.2431 -47.2421 -46.9358 -46.9355
   -18.4891 -18.4638 -17.7559 -17.7428 -17.4486 -17.4465 -17.4398 -17.4377
   -17.3532 -17.3525 -17.3442 -17.3435 -10.1814  -9.9247  -9.6758  -9.4690
    -9.3201  -9.2950  -9.1857  -9.0872  -9.0580  -9.0191  -8.8118  -8.6764
    -8.5963  -8.5210  -8.2745  -8.1474  -8.1326  -7.8932  -7.8714  -7.7370
    -7.6551  -7.6099  -7.5429  -7.3149  -7.2752  -7.1575  -6.9855  -6.9172
    -6.6543  -6.5895  -6.3913  -6.3208  -6.1425  -6.0236  -6.0025  -5.9903
    -5.9276  -5.9234  -5.8418  -5.6219  -5.3443  -5.2473  -4.3144  -4.2484
    -4.0526  -3.7382  -3.7196  -3.7020  -3.6737  -3.6466  -3.3785  -3.3277
    -2.8044  -2.7722  -2.6382  -2.4204

     occupation numbers 
     1.0000   1.0000   1.0000   1.0000   1.0000   1.0000   1.0000   1.0000
     1.0000   1.0000   1.0000   1.0000   1.0000   1.0000   1.0000   1.0000
     1.0000   1.0000   1.0000   1.0000   1.0000   1.0000   1.0000   1.0000
     1.0000   1.0000   1.0000   1.0000   1.0000   1.0000   1.0000   1.0000
     1.0000   1.0000   1.0000   1.0000   1.0000   1.0000   1.0000   1.0000
     1.0000   1.0000   1.0000   1.0000   1.0000   1.0000   1.0000   1.0000
     1.0000   1.0000   1.0000   1.0000   1.0000   1.0000   1.0000   1.0000
     1.0000   1.0000   1.0000   1.0000   1.0000   1.0000   1.0000   1.0000
     1.0000   1.0000   1.0000   1.0000   1.0000   1.0000   0.0000   0.0000
     0.0000   0.0000   0.0000   0.0000   0.0000   0.0000   0.0000   0.0000
     0.0000   0.0000   0.0000   0.0000

          k = 0.0000 0.1443 0.0000 ( 21773 PWs)   bands (ev):

   -78.4253 -78.4218 -75.6319 -75.6283 -50.5297 -50.5290 -50.2154 -50.2144
   -49.7651 -49.7646 -47.5333 -47.5328 -47.2423 -47.2411 -46.9349 -46.9341
   -18.4559 -18.4313 -17.7369 -17.7240 -17.4923 -17.4851 -17.4663 -17.4572
   -17.3561 -17.3551 -17.3476 -17.3463 -10.1776  -9.9293  -9.6717  -9.4657
    -9.3005  -9.2888  -9.1586  -9.1408  -9.0981  -9.0392  -8.7274  -8.7106
    -8.5099  -8.3591  -8.2567  -8.1534  -8.0386  -7.8475  -7.7931  -7.7045
    -7.6308  -7.5922  -7.5679  -7.3108  -7.2433  -7.1597  -6.9990  -6.9422
    -6.7176  -6.5973  -6.4331  -6.2993  -6.2285  -6.1290  -6.0627  -5.9601
    -5.9316  -5.8957  -5.8424  -5.6072  -5.5260  -5.3085  -4.3041  -4.2280
    -4.0838  -3.7757  -3.7728  -3.6641  -3.6418  -3.5628  -3.3903  -3.3385
    -2.8121  -2.7606  -2.6544  -2.4857

     occupation numbers 
     1.0000   1.0000   1.0000   1.0000   1.0000   1.0000   1.0000   1.0000
     1.0000   1.0000   1.0000   1.0000   1.0000   1.0000   1.0000   1.0000
     1.0000   1.0000   1.0000   1.0000   1.0000   1.0000   1.0000   1.0000
     1.0000   1.0000   1.0000   1.0000   1.0000   1.0000   1.0000   1.0000
     1.0000   1.0000   1.0000   1.0000   1.0000   1.0000   1.0000   1.0000
     1.0000   1.0000   1.0000   1.0000   1.0000   1.0000   1.0000   1.0000
     1.0000   1.0000   1.0000   1.0000   1.0000   1.0000   1.0000   1.0000
     1.0000   1.0000   1.0000   1.0000   1.0000   1.0000   1.0000   1.0000
     1.0000   1.0000   1.0000   1.0000   1.0000   1.0000   0.0000   0.0000
     0.0000   0.0000   0.0000   0.0000   0.0000   0.0000   0.0000   0.0000
     0.0000   0.0000   0.0000   0.0000

          k = 0.0000 0.2887 0.0000 ( 21759 PWs)   bands (ev):

   -78.4245 -78.4219 -75.6310 -75.6284 -50.5290 -50.5288 -50.2154 -50.2144
   -49.7647 -49.7642 -47.5328 -47.5324 -47.2424 -47.2412 -46.9345 -46.9337
   -18.3608 -18.3384 -17.6837 -17.6712 -17.6101 -17.6070 -17.5037 -17.4942
   -17.3768 -17.3694 -17.3677 -17.3619 -10.1589  -9.9252  -9.6527  -9.4458
    -9.3003  -9.2724  -9.1864  -9.1559  -9.0935  -8.9897  -8.6200  -8.5436
    -8.3994  -8.3214  -8.1854  -8.0121  -8.0022  -7.8340  -7.7259  -7.6200
    -7.5810  -7.5522  -7.3875  -7.2978  -7.2361  -7.1834  -7.0691  -6.9778
    -6.8112  -6.7038  -6.5457  -6.4323  -6.2920  -6.1920  -6.1892  -6.0746
    -5.9026  -5.8651  -5.8226  -5.7598  -5.6204  -5.3812  -4.2926  -4.1890
    -4.1533  -3.9426  -3.8118  -3.6886  -3.5685  -3.4422  -3.4089  -3.3442
    -2.8394  -2.7743  -2.6700  -2.5723

     occupation numbers 
     1.0000   1.0000   1.0000   1.0000   1.0000   1.0000   1.0000   1.0000
     1.0000   1.0000   1.0000   1.0000   1.0000   1.0000   1.0000   1.0000
     1.0000   1.0000   1.0000   1.0000   1.0000   1.0000   1.0000   1.0000
     1.0000   1.0000   1.0000   1.0000   1.0000   1.0000   1.0000   1.0000
     1.0000   1.0000   1.0000   1.0000   1.0000   1.0000   1.0000   1.0000
     1.0000   1.0000   1.0000   1.0000   1.0000   1.0000   1.0000   1.0000
     1.0000   1.0000   1.0000   1.0000   1.0000   1.0000   1.0000   1.0000
     1.0000   1.0000   1.0000   1.0000   1.0000   1.0000   1.0000   1.0000
     1.0000   1.0000   1.0000   1.0000   1.0000   1.0000   0.0000   0.0000
     0.0000   0.0000   0.0000   0.0000   0.0000   0.0000   0.0000   0.0000
     0.0000   0.0000   0.0000   0.0000

          k = 0.0000 0.4330 0.0000 ( 21736 PWs)   bands (ev):

   -78.4233 -78.4215 -75.6298 -75.6280 -50.5285 -50.5280 -50.2148 -50.2147
   -49.7640 -49.7638 -47.5321 -47.5318 -47.2418 -47.2415 -46.9336 -46.9333
   -18.2205 -18.2011 -17.7716 -17.7695 -17.6075 -17.5954 -17.5352 -17.5253
   -17.4277 -17.4183 -17.3852 -17.3786 -10.1506  -9.9273  -9.5781  -9.3800
    -9.3285  -9.2753  -9.1544  -9.0272  -8.9910  -8.9186  -8.5448  -8.4625
    -8.3633  -8.3001  -8.1427  -8.1089  -7.9783  -7.7692  -7.7335  -7.6697
    -7.6190  -7.4887  -7.4571  -7.3553  -7.2592  -7.0088  -6.9993  -6.8638
    -6.8278  -6.7901  -6.6882  -6.4779  -6.3295  -6.2981  -6.2551  -6.0797
    -5.9307  -5.8716  -5.8382  -5.7591  -5.6512  -5.4187  -4.2605  -4.1772
    -4.1010  -4.0818  -3.8555  -3.8135  -3.5224  -3.4211  -3.4031  -3.2866
    -2.8465  -2.7537  -2.6472  -2.6029

     occupation numbers 
     1.0000   1.0000   1.0000   1.0000   1.0000   1.0000   1.0000   1.0000
     1.0000   1.0000   1.0000   1.0000   1.0000   1.0000   1.0000   1.0000
     1.0000   1.0000   1.0000   1.0000   1.0000   1.0000   1.0000   1.0000
     1.0000   1.0000   1.0000   1.0000   1.0000   1.0000   1.0000   1.0000
     1.0000   1.0000   1.0000   1.0000   1.0000   1.0000   1.0000   1.0000
     1.0000   1.0000   1.0000   1.0000   1.0000   1.0000   1.0000   1.0000
     1.0000   1.0000   1.0000   1.0000   1.0000   1.0000   1.0000   1.0000
     1.0000   1.0000   1.0000   1.0000   1.0000   1.0000   1.0000   1.0000
     1.0000   1.0000   1.0000   1.0000   1.0000   1.0000   0.0000   0.0000
     0.0000   0.0000   0.0000   0.0000   0.0000   0.0000   0.0000   0.0000
     0.0000   0.0000   0.0000   0.0000

          k = 0.0000-0.5774 0.0000 ( 21764 PWs)   bands (ev):

   -78.4245 -78.4218 -75.6310 -75.6283 -50.5289 -50.5278 -50.2164 -50.2153
   -49.7643 -49.7636 -47.5325 -47.5315 -47.2435 -47.2423 -46.9338 -46.9331
   -18.1138 -18.0957 -17.8884 -17.8841 -17.5472 -17.5462 -17.5371 -17.5340
   -17.4799 -17.4707 -17.3919 -17.3857 -10.1542  -9.9339  -9.5230  -9.3650
    -9.3123  -9.2872  -9.0400  -8.9774  -8.9107  -8.8755  -8.5487  -8.4562
    -8.4318  -8.2243  -8.2234  -8.0336  -8.0246  -7.9437  -7.8432  -7.6927
    -7.6325  -7.4955  -7.3978  -7.3183  -7.3180  -7.0127  -6.8925  -6.8236
    -6.8194  -6.6651  -6.6569  -6.4869  -6.3931  -6.3405  -6.2751  -6.1631
    -5.9281  -5.8867  -5.8240  -5.7068  -5.6673  -5.4486  -4.2414  -4.1762
    -4.1710  -4.0298  -3.8896  -3.8851  -3.5214  -3.4332  -3.3942  -3.2624
    -2.8726  -2.7343  -2.6279  -2.5887

     occupation numbers 
     1.0000   1.0000   1.0000   1.0000   1.0000   1.0000   1.0000   1.0000
     1.0000   1.0000   1.0000   1.0000   1.0000   1.0000   1.0000   1.0000
     1.0000   1.0000   1.0000   1.0000   1.0000   1.0000   1.0000   1.0000
     1.0000   1.0000   1.0000   1.0000   1.0000   1.0000   1.0000   1.0000
     1.0000   1.0000   1.0000   1.0000   1.0000   1.0000   1.0000   1.0000
     1.0000   1.0000   1.0000   1.0000   1.0000   1.0000   1.0000   1.0000
     1.0000   1.0000   1.0000   1.0000   1.0000   1.0000   1.0000   1.0000
     1.0000   1.0000   1.0000   1.0000   1.0000   1.0000   1.0000   1.0000
     1.0000   1.0000   1.0000   1.0000   1.0000   1.0000   0.0000   0.0000
     0.0000   0.0000   0.0000   0.0000   0.0000   0.0000   0.0000   0.0000
     0.0000   0.0000   0.0000   0.0000

          k = 0.1250 0.2165 0.0000 ( 21799 PWs)   bands (ev):

   -78.4247 -78.4240 -75.6312 -75.6304 -50.5304 -50.5292 -50.2154 -50.2152
   -49.7660 -49.7645 -47.5344 -47.5328 -47.2422 -47.2421 -46.9359 -46.9339
   -18.3918 -18.3686 -17.7009 -17.6882 -17.5647 -17.5603 -17.5041 -17.4949
   -17.3692 -17.3621 -17.3603 -17.3540 -10.1554  -9.9172  -9.6707  -9.4645
    -9.3121  -9.2638  -9.1888  -9.1430  -9.1240  -9.0117  -8.6623  -8.5789
    -8.3899  -8.3677  -8.1757  -8.0704  -7.9680  -7.8566  -7.7474  -7.6258
    -7.6215  -7.5653  -7.4176  -7.3009  -7.2546  -7.1896  -7.0528  -6.9598
    -6.7975  -6.6333  -6.5005  -6.3920  -6.3098  -6.2159  -6.1266  -6.0525
    -5.9111  -5.8846  -5.8119  -5.7243  -5.6133  -5.3657  -4.3134  -4.2054
    -4.1562  -3.8762  -3.7678  -3.7272  -3.5615  -3.4846  -3.4076  -3.3579
    -2.8590  -2.7508  -2.6857  -2.5454

     occupation numbers 
     1.0000   1.0000   1.0000   1.0000   1.0000   1.0000   1.0000   1.0000
     1.0000   1.0000   1.0000   1.0000   1.0000   1.0000   1.0000   1.0000
     1.0000   1.0000   1.0000   1.0000   1.0000   1.0000   1.0000   1.0000
     1.0000   1.0000   1.0000   1.0000   1.0000   1.0000   1.0000   1.0000
     1.0000   1.0000   1.0000   1.0000   1.0000   1.0000   1.0000   1.0000
     1.0000   1.0000   1.0000   1.0000   1.0000   1.0000   1.0000   1.0000
     1.0000   1.0000   1.0000   1.0000   1.0000   1.0000   1.0000   1.0000
     1.0000   1.0000   1.0000   1.0000   1.0000   1.0000   1.0000   1.0000
     1.0000   1.0000   1.0000   1.0000   1.0000   1.0000   0.0000   0.0000
     0.0000   0.0000   0.0000   0.0000   0.0000   0.0000   0.0000   0.0000
     0.0000   0.0000   0.0000   0.0000

          k = 0.1250 0.3608 0.0000 ( 21770 PWs)   bands (ev):

   -78.4246 -78.4223 -75.6311 -75.6288 -50.5292 -50.5290 -50.2155 -50.2144
   -49.7648 -49.7645 -47.5330 -47.5327 -47.2425 -47.2412 -46.9346 -46.9340
   -18.2725 -18.2521 -17.6944 -17.6937 -17.6361 -17.6238 -17.5510 -17.5417
   -17.4028 -17.3935 -17.3781 -17.3707 -10.1039  -9.8769  -9.6478  -9.4399
    -9.3104  -9.2679  -9.1832  -9.1136  -9.0641  -8.9484  -8.5316  -8.5186
    -8.4092  -8.2555  -8.1477  -8.0804  -7.9406  -7.7963  -7.7246  -7.6919
    -7.5938  -7.4811  -7.3809  -7.3359  -7.2055  -7.1046  -7.0511  -6.9675
    -6.8324  -6.7112  -6.5776  -6.4846  -6.3727  -6.2973  -6.2247  -6.0525
    -5.9327  -5.8711  -5.8436  -5.7636  -5.6399  -5.4066  -4.2955  -4.2055
    -4.1300  -3.9759  -3.8174  -3.7642  -3.5650  -3.4590  -3.3679  -3.3194
    -2.8626  -2.7281  -2.6705  -2.5888

     occupation numbers 
     1.0000   1.0000   1.0000   1.0000   1.0000   1.0000   1.0000   1.0000
     1.0000   1.0000   1.0000   1.0000   1.0000   1.0000   1.0000   1.0000
     1.0000   1.0000   1.0000   1.0000   1.0000   1.0000   1.0000   1.0000
     1.0000   1.0000   1.0000   1.0000   1.0000   1.0000   1.0000   1.0000
     1.0000   1.0000   1.0000   1.0000   1.0000   1.0000   1.0000   1.0000
     1.0000   1.0000   1.0000   1.0000   1.0000   1.0000   1.0000   1.0000
     1.0000   1.0000   1.0000   1.0000   1.0000   1.0000   1.0000   1.0000
     1.0000   1.0000   1.0000   1.0000   1.0000   1.0000   1.0000   1.0000
     1.0000   1.0000   1.0000   1.0000   1.0000   1.0000   0.0000   0.0000
     0.0000   0.0000   0.0000   0.0000   0.0000   0.0000   0.0000   0.0000
     0.0000   0.0000   0.0000   0.0000

          k = 0.1250 0.5052 0.0000 ( 21769 PWs)   bands (ev):

   -78.4239 -78.4228 -75.6304 -75.6292 -50.5292 -50.5289 -50.2151 -50.2148
   -49.7647 -49.7645 -47.5329 -47.5326 -47.2420 -47.2416 -46.9344 -46.9340
   -18.1287 -18.1112 -17.8508 -17.8458 -17.5787 -17.5694 -17.5596 -17.5479
   -17.4587 -17.4491 -17.3916 -17.3847 -10.0787  -9.8583  -9.5671  -9.3697
    -9.3177  -9.2569  -9.1230  -8.9941  -8.9597  -8.9258  -8.5743  -8.4894
    -8.4428  -8.3451  -8.1917  -8.1341  -7.9458  -7.8710  -7.8182  -7.6514
    -7.6042  -7.4727  -7.4151  -7.2775  -7.2180  -7.0059  -6.9233  -6.8615
    -6.7881  -6.7039  -6.6301  -6.4783  -6.4394  -6.3674  -6.2589  -6.1234
    -5.9400  -5.8805  -5.8313  -5.6972  -5.6640  -5.4485  -4.2292  -4.2086
    -4.1049  -4.0138  -3.8749  -3.8476  -3.5420  -3.5021  -3.3470  -3.2778
    -2.8215  -2.7181  -2.6308  -2.5974

     occupation numbers 
     1.0000   1.0000   1.0000   1.0000   1.0000   1.0000   1.0000   1.0000
     1.0000   1.0000   1.0000   1.0000   1.0000   1.0000   1.0000   1.0000
     1.0000   1.0000   1.0000   1.0000   1.0000   1.0000   1.0000   1.0000
     1.0000   1.0000   1.0000   1.0000   1.0000   1.0000   1.0000   1.0000
     1.0000   1.0000   1.0000   1.0000   1.0000   1.0000   1.0000   1.0000
     1.0000   1.0000   1.0000   1.0000   1.0000   1.0000   1.0000   1.0000
     1.0000   1.0000   1.0000   1.0000   1.0000   1.0000   1.0000   1.0000
     1.0000   1.0000   1.0000   1.0000   1.0000   1.0000   1.0000   1.0000
     1.0000   1.0000   1.0000   1.0000   1.0000   1.0000   0.0000   0.0000
     0.0000   0.0000   0.0000   0.0000   0.0000   0.0000   0.0000   0.0000
     0.0000   0.0000   0.0000   0.0000

          k = 0.2500 0.4330 0.0000 ( 21735 PWs)   bands (ev):

   -78.4235 -78.4213 -75.6300 -75.6278 -50.5288 -50.5280 -50.2148 -50.2140
   -49.7643 -49.7638 -47.5325 -47.5318 -47.2417 -47.2408 -46.9338 -46.9334
   -18.1412 -18.1239 -17.8082 -17.8022 -17.6171 -17.6077 -17.5692 -17.5575
   -17.4380 -17.4281 -17.3957 -17.3883  -9.9641  -9.7434  -9.6572  -9.4488
    -9.2877  -9.2454  -9.1351  -9.0993  -8.9885  -8.9566  -8.5994  -8.4997
    -8.4813  -8.3637  -8.2141  -8.1248  -7.9554  -7.8376  -7.7658  -7.6610
    -7.6157  -7.4881  -7.2730  -7.2191  -7.1626  -7.0880  -6.9321  -6.8695
    -6.8005  -6.6621  -6.6391  -6.4996  -6.4448  -6.3600  -6.2036  -6.1394
    -6.0047  -5.8629  -5.8006  -5.6913  -5.6498  -5.4482  -4.2289  -4.2133
    -4.0777  -3.9579  -3.8564  -3.7690  -3.6316  -3.4981  -3.3139  -3.2966
    -2.7874  -2.6796  -2.6249  -2.5949

     occupation numbers 
     1.0000   1.0000   1.0000   1.0000   1.0000   1.0000   1.0000   1.0000
     1.0000   1.0000   1.0000   1.0000   1.0000   1.0000   1.0000   1.0000
     1.0000   1.0000   1.0000   1.0000   1.0000   1.0000   1.0000   1.0000
     1.0000   1.0000   1.0000   1.0000   1.0000   1.0000   1.0000   1.0000
     1.0000   1.0000   1.0000   1.0000   1.0000   1.0000   1.0000   1.0000
     1.0000   1.0000   1.0000   1.0000   1.0000   1.0000   1.0000   1.0000
     1.0000   1.0000   1.0000   1.0000   1.0000   1.0000   1.0000   1.0000
     1.0000   1.0000   1.0000   1.0000   1.0000   1.0000   1.0000   1.0000
     1.0000   1.0000   1.0000   1.0000   1.0000   1.0000   0.0000   0.0000
     0.0000   0.0000   0.0000   0.0000   0.0000   0.0000   0.0000   0.0000
     0.0000   0.0000   0.0000   0.0000

          k = 0.2500 0.5774 0.0000 ( 21742 PWs)   bands (ev):

   -78.4234 -78.4216 -75.6299 -75.6282 -50.5288 -50.5279 -50.2152 -50.2143
   -49.7643 -49.7637 -47.5325 -47.5317 -47.2421 -47.2411 -46.9339 -46.9332
   -18.0283 -18.0135 -17.9136 -17.9042 -17.6442 -17.6348 -17.5141 -17.5026
   -17.4771 -17.4667 -17.4066 -17.3993  -9.8812  -9.6643  -9.6405  -9.4342
    -9.2813  -9.2020  -9.1048  -9.0802  -9.0145  -8.9631  -8.6569  -8.5776
    -8.4766  -8.4139  -8.3177  -8.1892  -8.1022  -7.8725  -7.6866  -7.5887
    -7.5157  -7.4325  -7.3417  -7.1844  -7.0877  -6.9950  -6.9483  -6.8423
    -6.8035  -6.7173  -6.5568  -6.4950  -6.4552  -6.4024  -6.2363  -6.1457
    -6.0155  -5.8636  -5.7882  -5.6830  -5.5943  -5.4959  -4.2252  -4.1601
    -4.0891  -3.9245  -3.8531  -3.8092  -3.6544  -3.5186  -3.3071  -3.2818
    -2.7152  -2.6971  -2.6214  -2.5623

     occupation numbers 
     1.0000   1.0000   1.0000   1.0000   1.0000   1.0000   1.0000   1.0000
     1.0000   1.0000   1.0000   1.0000   1.0000   1.0000   1.0000   1.0000
     1.0000   1.0000   1.0000   1.0000   1.0000   1.0000   1.0000   1.0000
     1.0000   1.0000   1.0000   1.0000   1.0000   1.0000   1.0000   1.0000
     1.0000   1.0000   1.0000   1.0000   1.0000   1.0000   1.0000   1.0000
     1.0000   1.0000   1.0000   1.0000   1.0000   1.0000   1.0000   1.0000
     1.0000   1.0000   1.0000   1.0000   1.0000   1.0000   1.0000   1.0000
     1.0000   1.0000   1.0000   1.0000   1.0000   1.0000   1.0000   1.0000
     1.0000   1.0000   1.0000   1.0000   1.0000   1.0000   0.0000   0.0000
     0.0000   0.0000   0.0000   0.0000   0.0000   0.0000   0.0000   0.0000
     0.0000   0.0000   0.0000   0.0000

     the Fermi energy is    -4.7623 ev

!    total energy              =    -511.52803924 Ry
     estimated scf accuracy    <          4.3E-14 Ry
     smearing contrib. (-TS)   =      -0.00000000 Ry
     internal energy E=F+TS    =    -511.52803924 Ry

     The total energy is F=E-TS. E is the sum of the following terms:
     one-electron contribution =   -1701.05114193 Ry
     hartree contribution      =     844.00364939 Ry
     xc contribution           =     -99.66163745 Ry
     ewald contribution        =     445.18109074 Ry

     total magnetization       =     0.00     0.00     6.03 Bohr mag/cell
     absolute magnetization    =     7.08 Bohr mag/cell

     convergence has been achieved in  18 iterations

     Writing all to output data dir ./cri3_50Ry_k8x8x1.save/
 
     init_run     :      5.12s CPU      5.39s WALL (       1 calls)
     electrons    :    335.88s CPU    344.18s WALL (       1 calls)

     Called by init_run:
     wfcinit      :      4.28s CPU      4.49s WALL (       1 calls)
     wfcinit:atom :      0.06s CPU      0.08s WALL (      10 calls)
     wfcinit:wfcr :      3.97s CPU      4.11s WALL (      10 calls)
     potinit      :      0.13s CPU      0.14s WALL (       1 calls)
     hinit0       :      0.24s CPU      0.28s WALL (       1 calls)

     Called by electrons:
     c_bands      :    298.73s CPU    305.76s WALL (      18 calls)
     sum_band     :     35.81s CPU     36.86s WALL (      18 calls)
     v_of_rho     :      0.24s CPU      0.25s WALL (      19 calls)
     v_h          :      0.04s CPU      0.04s WALL (      19 calls)
     v_xc         :      0.20s CPU      0.21s WALL (      19 calls)
     mix_rho      :      0.99s CPU      1.01s WALL (      18 calls)

     Called by c_bands:
     init_us_2    :      2.00s CPU      2.03s WALL (     370 calls)
     init_us_2:cp :      2.00s CPU      2.03s WALL (     370 calls)
     cegterg      :    254.07s CPU    260.87s WALL (     187 calls)

     Called by sum_band:
     sum_band:wei :      0.01s CPU      0.01s WALL (      18 calls)
     sum_band:loo :     35.51s CPU     36.55s WALL (      18 calls)
     sum_band:buf :      0.59s CPU      0.60s WALL (     180 calls)
     sum_band:ini :      0.97s CPU      0.98s WALL (     180 calls)

     Called by *egterg:
     cdiaghg      :     11.20s CPU     12.92s WALL (    1302 calls)
     cegterg:over :     20.94s CPU     21.28s WALL (    1122 calls)
     cegterg:upda :     21.80s CPU     22.10s WALL (    1122 calls)
     cegterg:last :     19.64s CPU     19.79s WALL (     465 calls)
     cdiaghg:chol :      0.66s CPU      0.69s WALL (    1302 calls)
     cdiaghg:inve :      0.61s CPU      0.65s WALL (    1302 calls)
     cdiaghg:para :      1.12s CPU      1.18s WALL (    2604 calls)
     h_psi        :    176.82s CPU    181.08s WALL (    1319 calls)
     g_psi        :      0.90s CPU      0.91s WALL (    1122 calls)

     Called by h_psi:
     h_psi:calbec :     21.81s CPU     22.04s WALL (    1319 calls)
     vloc_psi     :    131.13s CPU    134.89s WALL (    1319 calls)
     add_vuspsi   :     22.27s CPU     22.43s WALL (    1319 calls)

     General routines
     calbec       :     21.80s CPU     22.04s WALL (    1319 calls)
     fft          :      0.18s CPU      0.21s WALL (     165 calls)
     ffts         :      0.06s CPU      0.07s WALL (      72 calls)
     fftw         :    102.43s CPU    105.69s WALL (  219700 calls)
 
     Parallel routines
 
     PWSCF        :   5m41.57s CPU   5m53.28s WALL

 
   This run was terminated on:  11: 6:33  19Jan2024            

=------------------------------------------------------------------------------=
   JOB DONE.
=------------------------------------------------------------------------------=
