
     Program PWSCF v.7.0 starts on 10Jan2024 at 15:21: 6 

     This program is part of the open-source Quantum ESPRESSO suite
     for quantum simulation of materials; please cite
         "P. Giannozzi et al., J. Phys.:Condens. Matter 21 395502 (2009);
         "P. Giannozzi et al., J. Phys.:Condens. Matter 29 465901 (2017);
         "P. Giannozzi et al., J. Chem. Phys. 152 154105 (2020);
          URL http://www.quantum-espresso.org", 
     in publications or presentations arising from this work. More details at
     http://www.quantum-espresso.org/quote

     Parallel version (MPI), running on    24 processors

     MPI processes distributed on     1 nodes
     R & G space division:  proc/nbgrp/npool/nimage =      24
     90094 MiB available memory on the printing compute node when the environment starts
 
     Reading input from cri3-exp-soc_70Ry_k8x8x1.scf.in

     Current dimensions of program PWSCF are:
     Max number of different atomic species (ntypx) = 10
     Max number of k-points (npk) =  40000
     Max angular momentum in pseudopotentials (lmaxx) =  4

     Subspace diagonalization in iterative solution of the eigenvalue problem:
     one sub-group per band group will be used
     scalapack distributed-memory algorithm (size of sub-group:  4*  4 procs)

 
     Parallelization info
     --------------------
     sticks:   dense  smooth     PW     G-vecs:    dense   smooth      PW
     Min         135     135     35                12015    12015    1661
     Max         136     136     36                12024    12024    1676
     Sum        3253    3253    859               288481   288481   40083
 
     Using Slab Decomposition
 


     bravais-lattice index     =            4
     lattice parameter (alat)  =      12.9767  a.u.
     unit-cell volume          =    3645.8815 (a.u.)^3
     number of atoms/cell      =            8
     number of atomic types    =            2
     number of electrons       =        70.00
     number of Kohn-Sham states=           84
     kinetic-energy cutoff     =      70.0000  Ry
     charge density cutoff     =     280.0000  Ry
     scf convergence threshold =      1.0E-13
     mixing beta               =       0.7000
     number of iterations used =            8  plain     mixing
     Exchange-correlation= PZ
                           (   1   1   0   0   0   0   0)
     Noncollinear calculation with spin-orbit


     celldm(1)=  12.976749  celldm(2)=   0.000000  celldm(3)=   1.926523
     celldm(4)=   0.000000  celldm(5)=   0.000000  celldm(6)=   0.000000

     crystal axes: (cart. coord. in units of alat)
               a(1) = (   1.000000   0.000000   0.000000 )  
               a(2) = (  -0.500000   0.866025   0.000000 )  
               a(3) = (   0.000000   0.000000   1.926523 )  

     reciprocal axes: (cart. coord. in units 2 pi/alat)
               b(1) = (  1.000000  0.577350  0.000000 )  
               b(2) = (  0.000000  1.154701  0.000000 )  
               b(3) = (  0.000000  0.000000  0.519070 )  


     PseudoPot. # 1 for Cr read from file:
     ./Cr_Alejandro.upf
     MD5 check sum: 19f8874af457815d5c8e16c7b8c57f71
     Pseudo is Norm-conserving + core correction, Zval = 14.0
     Generated using ONCVPSP code by D. R. Hamann
     Using radial grid of 1600 points, 10 beta functions with: 
                l(1) =   0
                l(2) =   0
                l(3) =   1
                l(4) =   1
                l(5) =   1
                l(6) =   1
                l(7) =   2
                l(8) =   2
                l(9) =   2
               l(10) =   2

     PseudoPot. # 2 for I  read from file:
     ./I_Alejandro.upf
     MD5 check sum: d0d4d45a39a9ecd37d4d9deb6bd296a3
     Pseudo is Norm-conserving + core correction, Zval =  7.0
     Generated using ONCVPSP code by D. R. Hamann
     Using radial grid of 1196 points, 10 beta functions with: 
                l(1) =   0
                l(2) =   0
                l(3) =   1
                l(4) =   1
                l(5) =   1
                l(6) =   1
                l(7) =   2
                l(8) =   2
                l(9) =   2
               l(10) =   2

     atomic species   valence    mass     pseudopotential
        Cr            14.00    51.99000     Cr( 1.00)
        I              7.00   126.90000     I ( 1.00)

      6 Sym. Ops. (no inversion) found ( 3 have fractional translation)


                                    s                        frac. trans.

      isym =  1     identity                                     

 Time Reversal            0
 cryst.   s( 1) = (     1          0          0      )
                  (     0          1          0      )
                  (     0          0          1      )

 cart.    s( 1) = (  1.0000000  0.0000000  0.0000000 )
                  (  0.0000000  1.0000000  0.0000000 )
                  (  0.0000000  0.0000000  1.0000000 )


      isym =  2     120 deg rotation - cryst. axis [0,0,1]       

 Time Reversal            0
 cryst.   s( 2) = (     0          1          0      )
                  (    -1         -1          0      )
                  (     0          0          1      )

 cart.    s( 2) = ( -0.5000000 -0.8660254  0.0000000 )
                  (  0.8660254 -0.5000000  0.0000000 )
                  (  0.0000000  0.0000000  1.0000000 )


      isym =  3     120 deg rotation - cryst. axis [0,0,-1]      

 Time Reversal            0
 cryst.   s( 3) = (    -1         -1          0      )
                  (     1          0          0      )
                  (     0          0          1      )

 cart.    s( 3) = ( -0.5000000  0.8660254  0.0000000 )
                  ( -0.8660254 -0.5000000  0.0000000 )
                  (  0.0000000  0.0000000  1.0000000 )


      isym =  4     inv. 180 deg rotation - cart. axis [0,1,0]   

 Time Reversal            1
 cryst.   s( 4) = (     1          0          0      )    f =( -0.3333333 )
                  (    -1         -1          0      )       (  0.3333333 )
                  (     0          0          1      )       (  0.0000000 )

 cart.    s( 4) = (  1.0000000  0.0000000  0.0000000 )    f =( -0.5000000 )
                  (  0.0000000 -1.0000000  0.0000000 )       (  0.2886751 )
                  (  0.0000000  0.0000000  1.0000000 )       (  0.0000000 )


      isym =  5     inv. 180 deg rotation - cryst. axis [1,-1,0] 

 Time Reversal            1
 cryst.   s( 5) = (     0          1          0      )    f =( -0.3333333 )
                  (     1          0          0      )       (  0.3333333 )
                  (     0          0          1      )       (  0.0000000 )

 cart.    s( 5) = ( -0.5000000  0.8660254  0.0000000 )    f =( -0.5000000 )
                  (  0.8660254  0.5000000  0.0000000 )       (  0.2886751 )
                  (  0.0000000  0.0000000  1.0000000 )       (  0.0000000 )


      isym =  6     inv. 180 deg rotation - cryst. axis [2,1,0]  

 Time Reversal            1
 cryst.   s( 6) = (    -1         -1          0      )    f =( -0.3333333 )
                  (     0          1          0      )       (  0.3333333 )
                  (     0          0          1      )       (  0.0000000 )

 cart.    s( 6) = ( -0.5000000 -0.8660254  0.0000000 )    f =( -0.5000000 )
                  ( -0.8660254  0.5000000  0.0000000 )       (  0.2886751 )
                  (  0.0000000  0.0000000  1.0000000 )       (  0.0000000 )


     the magnetic double point group is C_3v (3m)   [C_3 (3)    ]
     using the double point group C_3 (3)    
     there are  6 classes and  3 irreducible representations
     the character table:

       E     -E    C3    -C3   C3^2  -C3^2
                                          
G_4    1.00 -1.00  0.50 -0.50  0.50 -0.50
G_5    1.00 -1.00  0.50 -0.50  0.50 -0.50
G_6    1.00 -1.00 -1.00  1.00 -1.00  1.00

     imaginary part

       E     -E    C3    -C3   C3^2  -C3^2
                                          
G_4    0.00  0.00  0.87 -0.87 -0.87  0.87
G_5    0.00  0.00 -0.87  0.87  0.87 -0.87
G_6    0.00  0.00  0.00  0.00  0.00  0.00

     the symmetry operations in each class and the name of the first element:

     E             1
          identity                                               
     -E           -1
          identity E                                             
     C3            2
          120 deg rotation - cryst. axis [0,0,1]                 
     -C3          -2
          120 deg rotation - cryst. axis [0,0,1] E               
     C3^2          3
          120 deg rotation - cryst. axis [0,0,-1]                
     -C3^2        -3
          120 deg rotation - cryst. axis [0,0,-1] E              

   Cartesian axes

     site n.     atom                  positions (alat units)
         1           Cr  tau(   1) = (   0.0000000   0.0000000   0.4846161  )
         2           Cr  tau(   2) = (   0.0000000   0.5773503   0.4846161  )
         3           I   tau(   3) = (  -0.1753225   0.8510331   0.7123856  )
         4           I   tau(   4) = (   0.3246775   0.5923426   0.7123856  )
         5           I   tau(   5) = (  -0.1493550   0.2886751   0.7123856  )
         6           I   tau(   6) = (  -0.3246775   0.5923426   0.2568467  )
         7           I   tau(   7) = (   0.1753225   0.8510331   0.2568467  )
         8           I   tau(   8) = (   0.1493550   0.2886751   0.2568467  )

   Crystallographic axes

     site n.     atom                  positions (cryst. coord.)
         1           Cr  tau(   1) = (  0.0000000  0.0000000  0.2515496  )
         2           Cr  tau(   2) = (  0.3333333  0.6666667  0.2515496  )
         3           I   tau(   3) = (  0.3160217  0.9826883  0.3697779  )
         4           I   tau(   4) = (  0.6666667  0.6839783  0.3697779  )
         5           I   tau(   5) = (  0.0173117  0.3333333  0.3697779  )
         6           I   tau(   6) = (  0.0173117  0.6839783  0.1333214  )
         7           I   tau(   7) = (  0.6666667  0.9826883  0.1333214  )
         8           I   tau(   8) = (  0.3160217  0.3333333  0.1333214  )

     number of k points=    15  Gaussian smearing, width (Ry)=  0.0050
                       cart. coord. in units 2pi/alat
        k(    1) = (   0.0000000   0.0000000   0.0000000), wk =   0.0156250
        k(    2) = (   0.0000000   0.1443376   0.0000000), wk =   0.0468750
        k(    3) = (   0.0000000   0.2886751   0.0000000), wk =   0.0468750
        k(    4) = (   0.0000000   0.4330127   0.0000000), wk =   0.0468750
        k(    5) = (   0.0000000  -0.5773503   0.0000000), wk =   0.0468750
        k(    6) = (   0.1250000   0.2165064   0.0000000), wk =   0.0937500
        k(    7) = (   0.1250000   0.3608439   0.0000000), wk =   0.0937500
        k(    8) = (   0.1250000   0.5051815   0.0000000), wk =   0.0937500
        k(    9) = (   0.2500000   0.4330127   0.0000000), wk =   0.0937500
        k(   10) = (   0.2500000   0.5773503   0.0000000), wk =   0.0937500
        k(   11) = (   0.0000000  -0.1443376   0.0000000), wk =   0.0468750
        k(   12) = (   0.0000000  -0.2886751   0.0000000), wk =   0.0468750
        k(   13) = (   0.0000000  -0.4330127   0.0000000), wk =   0.0468750
        k(   14) = (   0.1250000  -0.3608439   0.0000000), wk =   0.0937500
        k(   15) = (   0.1250000  -0.5051815   0.0000000), wk =   0.0937500

                       cryst. coord.
        k(    1) = (   0.0000000   0.0000000   0.0000000), wk =   0.0156250
        k(    2) = (   0.0000000   0.1250000   0.0000000), wk =   0.0468750
        k(    3) = (   0.0000000   0.2500000   0.0000000), wk =   0.0468750
        k(    4) = (   0.0000000   0.3750000   0.0000000), wk =   0.0468750
        k(    5) = (   0.0000000  -0.5000000   0.0000000), wk =   0.0468750
        k(    6) = (   0.1250000   0.1250000   0.0000000), wk =   0.0937500
        k(    7) = (   0.1250000   0.2500000   0.0000000), wk =   0.0937500
        k(    8) = (   0.1250000   0.3750000   0.0000000), wk =   0.0937500
        k(    9) = (   0.2500000   0.2500000   0.0000000), wk =   0.0937500
        k(   10) = (   0.2500000   0.3750000   0.0000000), wk =   0.0937500
        k(   11) = (   0.0000000  -0.1250000   0.0000000), wk =   0.0468750
        k(   12) = (   0.0000000  -0.2500000   0.0000000), wk =   0.0468750
        k(   13) = (   0.0000000  -0.3750000   0.0000000), wk =   0.0468750
        k(   14) = (   0.1250000  -0.3750000   0.0000000), wk =   0.0937500
        k(   15) = (   0.1250000  -0.5000000   0.0000000), wk =   0.0937500

     Dense  grid:   288481 G-vectors     FFT dimensions: (  72,  72, 135)

     Dynamical RAM for                 wfc:       3.85 MB

     Dynamical RAM for     wfc (w. buffer):      61.61 MB

     Dynamical RAM for           str. fact:       0.37 MB

     Dynamical RAM for           local pot:       0.00 MB

     Dynamical RAM for          nlocal pot:       6.23 MB

     Dynamical RAM for                qrad:       7.04 MB

     Dynamical RAM for          rho,v,vnew:       5.05 MB

     Dynamical RAM for               rhoin:       1.68 MB

     Dynamical RAM for            rho*nmix:      11.74 MB

     Dynamical RAM for           G-vectors:       0.78 MB

     Dynamical RAM for          h,s,v(r/c):       0.08 MB

     Dynamical RAM for          <psi|beta>:       0.70 MB

     Dynamical RAM for                 psi:       7.70 MB

     Dynamical RAM for                hpsi:       7.70 MB

     Dynamical RAM for      wfcinit/wfcrot:       6.23 MB

     Estimated static dynamical RAM per process >      85.20 MB

     Estimated max dynamical RAM per process >     113.13 MB

     Estimated total dynamical RAM >       2.65 GB
 ----2D----2D----2D----2D----2D----2D----2D----2D----2D----2D----2D----2D
  The code is running with the 2D cutoff
  Please refer to:
  Sohier, T., Calandra, M., & Mauri, F. (2017), 
  Density functional perturbation theory for gated two-dimensional heterostructu
 res:
  Theoretical developments and application to flexural phonons in graphene.
  Physical Review B, 96(7), 75448. https://doi.org/10.1103/PhysRevB.96.075448
 ----2D----2D----2D----2D----2D----2D----2D----2D----2D----2D----2D----2D
     Generating pointlists ...
     new r_m :   0.1637 (alat units)  2.1245 (a.u.) for type    1
     new r_m :   0.1637 (alat units)  2.1245 (a.u.) for type    2

     Initial potential from superposition of free atoms

     starting charge      69.9974, renormalised to      70.0000

     negative rho (up, down):  7.233E-08 2.778E-03

 ==============================================================================
     atom number    1 relative position :    0.0000   0.0000   0.4846
     charge :    12.703309  (integrated on a sphere of radius 0.164)
     magnetization :          0.000000    0.000000   12.368658
     magnetization/charge:    0.000000    0.000000    0.973656
     polar coord.: r, theta, phi [deg] :    12.368658    0.000000  360.000000

 ==============================================================================

 ==============================================================================
     atom number    2 relative position :    0.0000   0.5774   0.4846
     charge :    12.703309  (integrated on a sphere of radius 0.164)
     magnetization :          0.000000    0.000000   12.368658
     magnetization/charge:    0.000000    0.000000    0.973656
     polar coord.: r, theta, phi [deg] :    12.368658    0.000000  360.000000

 ==============================================================================

 ==============================================================================
     atom number    3 relative position :   -0.1753   0.8510   0.7124
     charge :     4.088558  (integrated on a sphere of radius 0.164)
     magnetization :          0.000000    0.000000    0.080712
     magnetization/charge:    0.000000    0.000000    0.019741
     polar coord.: r, theta, phi [deg] :     0.080712    0.000000  360.000000

 ==============================================================================

 ==============================================================================
     atom number    4 relative position :    0.3247   0.5923   0.7124
     charge :     4.088558  (integrated on a sphere of radius 0.164)
     magnetization :          0.000000    0.000000    0.080712
     magnetization/charge:    0.000000    0.000000    0.019741
     polar coord.: r, theta, phi [deg] :     0.080712    0.000000  360.000000

 ==============================================================================

 ==============================================================================
     atom number    5 relative position :   -0.1494   0.2887   0.7124
     charge :     4.088558  (integrated on a sphere of radius 0.164)
     magnetization :          0.000000    0.000000    0.080712
     magnetization/charge:    0.000000    0.000000    0.019741
     polar coord.: r, theta, phi [deg] :     0.080712    0.000000  360.000000

 ==============================================================================

 ==============================================================================
     atom number    6 relative position :   -0.3247   0.5923   0.2568
     charge :     4.088627  (integrated on a sphere of radius 0.164)
     magnetization :          0.000000    0.000000    0.080708
     magnetization/charge:    0.000000    0.000000    0.019740
     polar coord.: r, theta, phi [deg] :     0.080708    0.000000  360.000000

 ==============================================================================

 ==============================================================================
     atom number    7 relative position :    0.1753   0.8510   0.2568
     charge :     4.088627  (integrated on a sphere of radius 0.164)
     magnetization :          0.000000    0.000000    0.080708
     magnetization/charge:    0.000000    0.000000    0.019740
     polar coord.: r, theta, phi [deg] :     0.080708    0.000000  360.000000

 ==============================================================================

 ==============================================================================
     atom number    8 relative position :    0.1494   0.2887   0.2568
     charge :     4.088627  (integrated on a sphere of radius 0.164)
     magnetization :          0.000000    0.000000    0.080708
     magnetization/charge:    0.000000    0.000000    0.019740
     polar coord.: r, theta, phi [deg] :     0.080708    0.000000  360.000000

 ==============================================================================
     Starting wfcs are   88 randomized atomic wfcs

     total cpu time spent up to now is        7.6 secs

     Self-consistent Calculation

     iteration #  1     ecut=    70.00 Ry     beta= 0.70
     Davidson diagonalization with overlap

---- Real-time Memory Report at c_bands before calling an iterative solver
           250 MiB given to the printing process from OS
             0 MiB allocation reported by mallinfo(arena+hblkhd)
         87061 MiB available memory on the node where the printing process lives
------------------
     c_bands:  5 eigenvalues not converged
     c_bands:  1 eigenvalues not converged
     c_bands:  1 eigenvalues not converged
     c_bands:  5 eigenvalues not converged
     c_bands:  2 eigenvalues not converged
     c_bands:  2 eigenvalues not converged
     c_bands:  5 eigenvalues not converged
     c_bands:  5 eigenvalues not converged
     c_bands:  1 eigenvalues not converged
     ethr =  5.00E-06,  avg # of iterations = 33.3

     negative rho (up, down):  2.459E-09 1.516E-03

     total cpu time spent up to now is      109.1 secs

     total energy              =    -511.38844506 Ry
     estimated scf accuracy    <       4.49261931 Ry

     total magnetization       =    -0.00    -0.00     6.27 Bohr mag/cell
     absolute magnetization    =    10.87 Bohr mag/cell

     iteration #  2     ecut=    70.00 Ry     beta= 0.70
     Davidson diagonalization with overlap

---- Real-time Memory Report at c_bands before calling an iterative solver
           274 MiB given to the printing process from OS
             0 MiB allocation reported by mallinfo(arena+hblkhd)
         85770 MiB available memory on the node where the printing process lives
------------------
     ethr =  6.42E-03,  avg # of iterations =  7.6

     negative rho (up, down):  0.000E+00 3.109E-03

     total cpu time spent up to now is      135.6 secs

     total energy              =    -511.70566545 Ry
     estimated scf accuracy    <       0.65199502 Ry

     total magnetization       =    -0.00    -0.00     6.32 Bohr mag/cell
     absolute magnetization    =    10.75 Bohr mag/cell

     iteration #  3     ecut=    70.00 Ry     beta= 0.70
     Davidson diagonalization with overlap

---- Real-time Memory Report at c_bands before calling an iterative solver
           280 MiB given to the printing process from OS
             0 MiB allocation reported by mallinfo(arena+hblkhd)
         85539 MiB available memory on the node where the printing process lives
------------------
     c_bands:  1 eigenvalues not converged
     ethr =  9.31E-04,  avg # of iterations = 10.9

     negative rho (up, down):  0.000E+00 5.114E-03

     total cpu time spent up to now is      168.3 secs

     total energy              =    -511.58133327 Ry
     estimated scf accuracy    <       4.09989752 Ry

     total magnetization       =     0.00     0.00     6.00 Bohr mag/cell
     absolute magnetization    =     6.59 Bohr mag/cell

     iteration #  4     ecut=    70.00 Ry     beta= 0.70
     Davidson diagonalization with overlap

---- Real-time Memory Report at c_bands before calling an iterative solver
           282 MiB given to the printing process from OS
             0 MiB allocation reported by mallinfo(arena+hblkhd)
         85507 MiB available memory on the node where the printing process lives
------------------
     c_bands:  2 eigenvalues not converged
     c_bands:  1 eigenvalues not converged
     c_bands:  1 eigenvalues not converged
     c_bands:  1 eigenvalues not converged
     c_bands:  2 eigenvalues not converged
     c_bands:  2 eigenvalues not converged
     ethr =  9.31E-04,  avg # of iterations = 17.3

     negative rho (up, down):  0.000E+00 4.672E-03

     total cpu time spent up to now is      211.1 secs

     total energy              =    -512.06628981 Ry
     estimated scf accuracy    <       0.05146796 Ry

     total magnetization       =    -0.00     0.00     6.06 Bohr mag/cell
     absolute magnetization    =     7.96 Bohr mag/cell

     iteration #  5     ecut=    70.00 Ry     beta= 0.70
     Davidson diagonalization with overlap

---- Real-time Memory Report at c_bands before calling an iterative solver
           283 MiB given to the printing process from OS
             0 MiB allocation reported by mallinfo(arena+hblkhd)
         85419 MiB available memory on the node where the printing process lives
------------------
     ethr =  7.35E-05,  avg # of iterations = 11.9

     negative rho (up, down):  0.000E+00 4.690E-03

     total cpu time spent up to now is      247.0 secs

     total energy              =    -512.08631789 Ry
     estimated scf accuracy    <       0.00834838 Ry

     total magnetization       =     0.00     0.00     6.04 Bohr mag/cell
     absolute magnetization    =     7.66 Bohr mag/cell

     iteration #  6     ecut=    70.00 Ry     beta= 0.70
     Davidson diagonalization with overlap

---- Real-time Memory Report at c_bands before calling an iterative solver
           285 MiB given to the printing process from OS
             0 MiB allocation reported by mallinfo(arena+hblkhd)
         85323 MiB available memory on the node where the printing process lives
------------------
     ethr =  1.19E-05,  avg # of iterations =  2.1

     negative rho (up, down):  0.000E+00 4.581E-03

     total cpu time spent up to now is      268.3 secs

     total energy              =    -512.08886155 Ry
     estimated scf accuracy    <       0.00169875 Ry

     total magnetization       =    -0.00    -0.00     6.04 Bohr mag/cell
     absolute magnetization    =     7.40 Bohr mag/cell

     iteration #  7     ecut=    70.00 Ry     beta= 0.70
     Davidson diagonalization with overlap

---- Real-time Memory Report at c_bands before calling an iterative solver
           286 MiB given to the printing process from OS
             0 MiB allocation reported by mallinfo(arena+hblkhd)
         85283 MiB available memory on the node where the printing process lives
------------------
     ethr =  2.43E-06,  avg # of iterations =  4.1

     negative rho (up, down):  0.000E+00 4.577E-03

     total cpu time spent up to now is      295.3 secs

     total energy              =    -512.08886183 Ry
     estimated scf accuracy    <       0.00253409 Ry

     total magnetization       =    -0.00     0.00     6.03 Bohr mag/cell
     absolute magnetization    =     7.25 Bohr mag/cell

     iteration #  8     ecut=    70.00 Ry     beta= 0.70
     Davidson diagonalization with overlap

---- Real-time Memory Report at c_bands before calling an iterative solver
           287 MiB given to the printing process from OS
             0 MiB allocation reported by mallinfo(arena+hblkhd)
         85248 MiB available memory on the node where the printing process lives
------------------
     ethr =  2.43E-06,  avg # of iterations =  2.4

     negative rho (up, down):  0.000E+00 4.594E-03

     total cpu time spent up to now is      320.5 secs

     total energy              =    -512.08943997 Ry
     estimated scf accuracy    <       0.00044723 Ry

     total magnetization       =    -0.00     0.00     6.03 Bohr mag/cell
     absolute magnetization    =     7.21 Bohr mag/cell

     iteration #  9     ecut=    70.00 Ry     beta= 0.70
     Davidson diagonalization with overlap

---- Real-time Memory Report at c_bands before calling an iterative solver
           288 MiB given to the printing process from OS
             0 MiB allocation reported by mallinfo(arena+hblkhd)
         85165 MiB available memory on the node where the printing process lives
------------------
     ethr =  6.39E-07,  avg # of iterations =  2.0

     negative rho (up, down):  0.000E+00 4.422E-03

     total cpu time spent up to now is      342.2 secs

     total energy              =    -512.08954292 Ry
     estimated scf accuracy    <       0.00002552 Ry

     total magnetization       =    -0.00     0.00     6.03 Bohr mag/cell
     absolute magnetization    =     7.16 Bohr mag/cell

     iteration # 10     ecut=    70.00 Ry     beta= 0.70
     Davidson diagonalization with overlap

---- Real-time Memory Report at c_bands before calling an iterative solver
           290 MiB given to the printing process from OS
             0 MiB allocation reported by mallinfo(arena+hblkhd)
         85129 MiB available memory on the node where the printing process lives
------------------
     ethr =  3.65E-08,  avg # of iterations =  4.0

     negative rho (up, down):  0.000E+00 4.461E-03

     total cpu time spent up to now is      368.9 secs

     total energy              =    -512.08955008 Ry
     estimated scf accuracy    <       0.00000155 Ry

     total magnetization       =     0.00     0.00     6.03 Bohr mag/cell
     absolute magnetization    =     7.16 Bohr mag/cell

     iteration # 11     ecut=    70.00 Ry     beta= 0.70
     Davidson diagonalization with overlap

---- Real-time Memory Report at c_bands before calling an iterative solver
           291 MiB given to the printing process from OS
             0 MiB allocation reported by mallinfo(arena+hblkhd)
         85090 MiB available memory on the node where the printing process lives
------------------
     ethr =  2.21E-09,  avg # of iterations =  4.1

     negative rho (up, down):  0.000E+00 4.452E-03

     total cpu time spent up to now is      394.1 secs

     total energy              =    -512.08955032 Ry
     estimated scf accuracy    <       0.00000032 Ry

     total magnetization       =     0.00     0.00     6.03 Bohr mag/cell
     absolute magnetization    =     7.16 Bohr mag/cell

     iteration # 12     ecut=    70.00 Ry     beta= 0.70
     Davidson diagonalization with overlap

---- Real-time Memory Report at c_bands before calling an iterative solver
           291 MiB given to the printing process from OS
             0 MiB allocation reported by mallinfo(arena+hblkhd)
         86177 MiB available memory on the node where the printing process lives
------------------
     ethr =  4.56E-10,  avg # of iterations =  3.8

     negative rho (up, down):  0.000E+00 4.461E-03

     total cpu time spent up to now is      409.9 secs

     total energy              =    -512.08955043 Ry
     estimated scf accuracy    <       0.00000007 Ry

     total magnetization       =    -0.00     0.00     6.03 Bohr mag/cell
     absolute magnetization    =     7.16 Bohr mag/cell

     iteration # 13     ecut=    70.00 Ry     beta= 0.70
     Davidson diagonalization with overlap

---- Real-time Memory Report at c_bands before calling an iterative solver
           291 MiB given to the printing process from OS
             0 MiB allocation reported by mallinfo(arena+hblkhd)
         89791 MiB available memory on the node where the printing process lives
------------------
     ethr =  9.72E-11,  avg # of iterations =  2.0

     negative rho (up, down):  0.000E+00 4.461E-03

     total cpu time spent up to now is      423.2 secs

     total energy              =    -512.08955044 Ry
     estimated scf accuracy    <          3.6E-09 Ry

     total magnetization       =     0.00    -0.00     6.03 Bohr mag/cell
     absolute magnetization    =     7.16 Bohr mag/cell

     iteration # 14     ecut=    70.00 Ry     beta= 0.70
     Davidson diagonalization with overlap

---- Real-time Memory Report at c_bands before calling an iterative solver
           291 MiB given to the printing process from OS
             0 MiB allocation reported by mallinfo(arena+hblkhd)
         89736 MiB available memory on the node where the printing process lives
------------------
     ethr =  5.10E-12,  avg # of iterations =  5.4

     negative rho (up, down):  0.000E+00 4.452E-03

     total cpu time spent up to now is      440.4 secs

     total energy              =    -512.08955044 Ry
     estimated scf accuracy    <          1.0E-09 Ry

     total magnetization       =    -0.00     0.00     6.03 Bohr mag/cell
     absolute magnetization    =     7.16 Bohr mag/cell

     iteration # 15     ecut=    70.00 Ry     beta= 0.70
     Davidson diagonalization with overlap

---- Real-time Memory Report at c_bands before calling an iterative solver
           291 MiB given to the printing process from OS
             0 MiB allocation reported by mallinfo(arena+hblkhd)
         89737 MiB available memory on the node where the printing process lives
------------------
     ethr =  1.45E-12,  avg # of iterations =  2.0

     negative rho (up, down):  0.000E+00 4.444E-03

     total cpu time spent up to now is      453.4 secs

     total energy              =    -512.08955044 Ry
     estimated scf accuracy    <          4.8E-11 Ry

     total magnetization       =     0.00    -0.00     6.03 Bohr mag/cell
     absolute magnetization    =     7.16 Bohr mag/cell

     iteration # 16     ecut=    70.00 Ry     beta= 0.70
     Davidson diagonalization with overlap

---- Real-time Memory Report at c_bands before calling an iterative solver
           291 MiB given to the printing process from OS
             0 MiB allocation reported by mallinfo(arena+hblkhd)
         89738 MiB available memory on the node where the printing process lives
------------------
     ethr =  1.00E-13,  avg # of iterations =  4.5

     negative rho (up, down):  0.000E+00 4.444E-03

     total cpu time spent up to now is      469.8 secs

     total energy              =    -512.08955044 Ry
     estimated scf accuracy    <          2.1E-11 Ry

     total magnetization       =     0.00     0.00     6.03 Bohr mag/cell
     absolute magnetization    =     7.16 Bohr mag/cell

     iteration # 17     ecut=    70.00 Ry     beta= 0.70
     Davidson diagonalization with overlap

---- Real-time Memory Report at c_bands before calling an iterative solver
           291 MiB given to the printing process from OS
             0 MiB allocation reported by mallinfo(arena+hblkhd)
         89732 MiB available memory on the node where the printing process lives
------------------
     ethr =  1.00E-13,  avg # of iterations =  1.1

     negative rho (up, down):  0.000E+00 4.444E-03

     total cpu time spent up to now is      480.3 secs

     total energy              =    -512.08955044 Ry
     estimated scf accuracy    <          1.6E-12 Ry

     total magnetization       =     0.00     0.00     6.03 Bohr mag/cell
     absolute magnetization    =     7.16 Bohr mag/cell

     iteration # 18     ecut=    70.00 Ry     beta= 0.70
     Davidson diagonalization with overlap

---- Real-time Memory Report at c_bands before calling an iterative solver
           291 MiB given to the printing process from OS
             0 MiB allocation reported by mallinfo(arena+hblkhd)
         89732 MiB available memory on the node where the printing process lives
------------------
     ethr =  1.00E-13,  avg # of iterations =  1.0

     negative rho (up, down):  0.000E+00 4.444E-03

     total cpu time spent up to now is      490.6 secs

     total energy              =    -512.08955044 Ry
     estimated scf accuracy    <          1.1E-13 Ry

     total magnetization       =    -0.00    -0.00     6.03 Bohr mag/cell
     absolute magnetization    =     7.16 Bohr mag/cell

     iteration # 19     ecut=    70.00 Ry     beta= 0.70
     Davidson diagonalization with overlap

---- Real-time Memory Report at c_bands before calling an iterative solver
           291 MiB given to the printing process from OS
             0 MiB allocation reported by mallinfo(arena+hblkhd)
         89731 MiB available memory on the node where the printing process lives
------------------
     ethr =  1.00E-13,  avg # of iterations =  1.0

     negative rho (up, down):  0.000E+00 4.444E-03

 ==============================================================================
     atom number    1 relative position :    0.0000   0.0000   0.4846
     charge :    12.441505  (integrated on a sphere of radius 0.164)
     magnetization :         -0.000000   -0.000000    2.943761
     magnetization/charge:   -0.000000   -0.000000    0.236608
     polar coord.: r, theta, phi [deg] :     2.943761    0.000000  360.000000

 ==============================================================================

 ==============================================================================
     atom number    2 relative position :    0.0000   0.5774   0.4846
     charge :    12.441505  (integrated on a sphere of radius 0.164)
     magnetization :         -0.000000    0.000000    2.943761
     magnetization/charge:   -0.000000    0.000000    0.236608
     polar coord.: r, theta, phi [deg] :     2.943761    0.000000  360.000000

 ==============================================================================

 ==============================================================================
     atom number    3 relative position :   -0.1753   0.8510   0.7124
     charge :     4.119464  (integrated on a sphere of radius 0.164)
     magnetization :         -0.000546   -0.000945   -0.050438
     magnetization/charge:   -0.000132   -0.000229   -0.012244
     polar coord.: r, theta, phi [deg] :     0.050449  178.760164 -120.000000

 ==============================================================================

 ==============================================================================
     atom number    4 relative position :    0.3247   0.5923   0.7124
     charge :     4.119464  (integrated on a sphere of radius 0.164)
     magnetization :         -0.000546    0.000945   -0.050438
     magnetization/charge:   -0.000132    0.000229   -0.012244
     polar coord.: r, theta, phi [deg] :     0.050449  178.760164  120.000000

 ==============================================================================

 ==============================================================================
     atom number    5 relative position :   -0.1494   0.2887   0.7124
     charge :     4.119464  (integrated on a sphere of radius 0.164)
     magnetization :          0.001092   -0.000000   -0.050438
     magnetization/charge:    0.000265   -0.000000   -0.012244
     polar coord.: r, theta, phi [deg] :     0.050449  178.760164    0.000000

 ==============================================================================

 ==============================================================================
     atom number    6 relative position :   -0.3247   0.5923   0.2568
     charge :     4.119527  (integrated on a sphere of radius 0.164)
     magnetization :         -0.000546   -0.000946   -0.050436
     magnetization/charge:   -0.000133   -0.000230   -0.012243
     polar coord.: r, theta, phi [deg] :     0.050448  178.759381 -120.000000

 ==============================================================================

 ==============================================================================
     atom number    7 relative position :    0.1753   0.8510   0.2568
     charge :     4.119527  (integrated on a sphere of radius 0.164)
     magnetization :         -0.000546    0.000946   -0.050436
     magnetization/charge:   -0.000133    0.000230   -0.012243
     polar coord.: r, theta, phi [deg] :     0.050448  178.759381  120.000000

 ==============================================================================

 ==============================================================================
     atom number    8 relative position :    0.1494   0.2887   0.2568
     charge :     4.119527  (integrated on a sphere of radius 0.164)
     magnetization :          0.001092    0.000000   -0.050436
     magnetization/charge:    0.000265    0.000000   -0.012243
     polar coord.: r, theta, phi [deg] :     0.050448  178.759381    0.000000

 ==============================================================================

     total cpu time spent up to now is      501.0 secs

     End of self-consistent calculation

          k = 0.0000 0.0000 0.0000 ( 36103 PWs)   bands (ev):

   -77.3817 -77.3815 -74.4458 -74.4456 -49.5264 -49.5237 -49.2087 -49.2078
   -48.7647 -48.7616 -46.4255 -46.4219 -46.1308 -46.1295 -45.8253 -45.8213
   -18.4845 -18.4664 -17.7601 -17.7415 -17.4528 -17.4506 -17.4381 -17.4359
   -17.3589 -17.3582 -17.3437 -17.3430 -10.1436  -9.9002  -9.6515  -9.4545
    -9.3038  -9.2830  -9.1757  -9.0805  -9.0423  -9.0036  -8.8002  -8.6615
    -8.5805  -8.5131  -8.2575  -8.1340  -8.1173  -7.8898  -7.8682  -7.7376
    -7.6361  -7.5984  -7.5250  -7.3064  -7.2706  -7.1469  -6.9900  -6.9158
    -6.6625  -6.6011  -6.3933  -6.3929  -6.1420  -6.0677  -6.0564  -6.0360
    -5.9691  -5.9620  -5.8397  -5.6663  -5.3420  -5.2569  -4.4170  -4.3518
    -4.1389  -3.7681  -3.7353  -3.7349  -3.7090  -3.6425  -3.4125  -3.3599
    -2.8640  -2.8323  -2.6775  -2.4653

     occupation numbers 
     1.0000   1.0000   1.0000   1.0000   1.0000   1.0000   1.0000   1.0000
     1.0000   1.0000   1.0000   1.0000   1.0000   1.0000   1.0000   1.0000
     1.0000   1.0000   1.0000   1.0000   1.0000   1.0000   1.0000   1.0000
     1.0000   1.0000   1.0000   1.0000   1.0000   1.0000   1.0000   1.0000
     1.0000   1.0000   1.0000   1.0000   1.0000   1.0000   1.0000   1.0000
     1.0000   1.0000   1.0000   1.0000   1.0000   1.0000   1.0000   1.0000
     1.0000   1.0000   1.0000   1.0000   1.0000   1.0000   1.0000   1.0000
     1.0000   1.0000   1.0000   1.0000   1.0000   1.0000   1.0000   1.0000
     1.0000   1.0000   1.0000   1.0000   1.0000   1.0000   0.0000   0.0000
     0.0000   0.0000   0.0000   0.0000   0.0000   0.0000   0.0000   0.0000
     0.0000   0.0000   0.0000   0.0000

          k = 0.0000 0.1443 0.0000 ( 36080 PWs)   bands (ev):

   -77.3816 -77.3815 -74.4458 -74.4456 -49.5263 -49.5237 -49.2086 -49.2078
   -48.7646 -48.7617 -46.4254 -46.4220 -46.1307 -46.1296 -45.8251 -45.8214
   -18.4514 -18.4340 -17.7412 -17.7227 -17.4965 -17.4834 -17.4705 -17.4556
   -17.3619 -17.3609 -17.3472 -17.3458 -10.1414  -9.9060  -9.6475  -9.4512
    -9.2884  -9.2728  -9.1483  -9.1307  -9.0854  -9.0288  -8.7136  -8.6985
    -8.4941  -8.3487  -8.2429  -8.1422  -8.0276  -7.8461  -7.7904  -7.6903
    -7.6294  -7.5788  -7.5551  -7.3036  -7.2379  -7.1502  -7.0028  -6.9439
    -6.7345  -6.6126  -6.4360  -6.3615  -6.2382  -6.1510  -6.1022  -6.0028
    -5.9579  -5.9507  -5.8993  -5.6523  -5.5231  -5.3296  -4.4117  -4.3361
    -4.1789  -3.8661  -3.7860  -3.6807  -3.6530  -3.5814  -3.4296  -3.3759
    -2.8751  -2.8263  -2.7076  -2.5390

     occupation numbers 
     1.0000   1.0000   1.0000   1.0000   1.0000   1.0000   1.0000   1.0000
     1.0000   1.0000   1.0000   1.0000   1.0000   1.0000   1.0000   1.0000
     1.0000   1.0000   1.0000   1.0000   1.0000   1.0000   1.0000   1.0000
     1.0000   1.0000   1.0000   1.0000   1.0000   1.0000   1.0000   1.0000
     1.0000   1.0000   1.0000   1.0000   1.0000   1.0000   1.0000   1.0000
     1.0000   1.0000   1.0000   1.0000   1.0000   1.0000   1.0000   1.0000
     1.0000   1.0000   1.0000   1.0000   1.0000   1.0000   1.0000   1.0000
     1.0000   1.0000   1.0000   1.0000   1.0000   1.0000   1.0000   1.0000
     1.0000   1.0000   1.0000   1.0000   1.0000   1.0000   0.0000   0.0000
     0.0000   0.0000   0.0000   0.0000   0.0000   0.0000   0.0000   0.0000
     0.0000   0.0000   0.0000   0.0000

          k = 0.0000 0.2887 0.0000 ( 36074 PWs)   bands (ev):

   -77.3816 -77.3815 -74.4458 -74.4456 -49.5260 -49.5240 -49.2086 -49.2079
   -48.7643 -48.7620 -46.4250 -46.4224 -46.1306 -46.1297 -45.8248 -45.8218
   -18.3564 -18.3410 -17.6882 -17.6700 -17.6139 -17.6048 -17.5079 -17.4926
   -17.3825 -17.3753 -17.3673 -17.3615 -10.1260  -9.9046  -9.6277  -9.4306
    -9.2850  -9.2570  -9.1757  -9.1451  -9.0832  -8.9819  -8.6035  -8.5311
    -8.3874  -8.3094  -8.1750  -8.0005  -7.9868  -7.8288  -7.7165  -7.6109
    -7.5761  -7.5441  -7.3825  -7.2951  -7.2280  -7.1785  -7.0718  -6.9774
    -6.8227  -6.7173  -6.5473  -6.4388  -6.3303  -6.2216  -6.1913  -6.1014
    -5.9796  -5.9173  -5.8890  -5.7602  -5.6719  -5.4204  -4.3979  -4.2932
    -4.2573  -4.0365  -3.8175  -3.7023  -3.5915  -3.4702  -3.4478  -3.3852
    -2.8976  -2.8333  -2.7371  -2.6273

     occupation numbers 
     1.0000   1.0000   1.0000   1.0000   1.0000   1.0000   1.0000   1.0000
     1.0000   1.0000   1.0000   1.0000   1.0000   1.0000   1.0000   1.0000
     1.0000   1.0000   1.0000   1.0000   1.0000   1.0000   1.0000   1.0000
     1.0000   1.0000   1.0000   1.0000   1.0000   1.0000   1.0000   1.0000
     1.0000   1.0000   1.0000   1.0000   1.0000   1.0000   1.0000   1.0000
     1.0000   1.0000   1.0000   1.0000   1.0000   1.0000   1.0000   1.0000
     1.0000   1.0000   1.0000   1.0000   1.0000   1.0000   1.0000   1.0000
     1.0000   1.0000   1.0000   1.0000   1.0000   1.0000   1.0000   1.0000
     1.0000   1.0000   1.0000   1.0000   1.0000   1.0000   0.0000   0.0000
     0.0000   0.0000   0.0000   0.0000   0.0000   0.0000   0.0000   0.0000
     0.0000   0.0000   0.0000   0.0000

          k = 0.0000 0.4330 0.0000 ( 36058 PWs)   bands (ev):

   -77.3816 -77.3815 -74.4457 -74.4456 -49.5257 -49.5243 -49.2084 -49.2080
   -48.7639 -48.7624 -46.4246 -46.4228 -46.1304 -46.1298 -45.8242 -45.8223
   -18.2163 -18.2039 -17.7731 -17.7690 -17.6123 -17.5945 -17.5392 -17.5236
   -17.4333 -17.4178 -17.3911 -17.3782 -10.1211  -9.9092  -9.5515  -9.3636
    -9.3118  -9.2638  -9.1416  -9.0167  -8.9802  -8.9091  -8.5359  -8.4485
    -8.3518  -8.2883  -8.1352  -8.0973  -7.9704  -7.7580  -7.7237  -7.6620
    -7.6109  -7.4861  -7.4514  -7.3484  -7.2581  -7.0068  -6.9957  -6.8599
    -6.8288  -6.7948  -6.6941  -6.4822  -6.3737  -6.3043  -6.2822  -6.1156
    -5.9791  -5.9402  -5.8722  -5.7906  -5.7220  -5.4738  -4.3654  -4.2812
    -4.2077  -4.1816  -3.8597  -3.8285  -3.5672  -3.4519  -3.4371  -3.3318
    -2.9027  -2.8167  -2.7166  -2.6633

     occupation numbers 
     1.0000   1.0000   1.0000   1.0000   1.0000   1.0000   1.0000   1.0000
     1.0000   1.0000   1.0000   1.0000   1.0000   1.0000   1.0000   1.0000
     1.0000   1.0000   1.0000   1.0000   1.0000   1.0000   1.0000   1.0000
     1.0000   1.0000   1.0000   1.0000   1.0000   1.0000   1.0000   1.0000
     1.0000   1.0000   1.0000   1.0000   1.0000   1.0000   1.0000   1.0000
     1.0000   1.0000   1.0000   1.0000   1.0000   1.0000   1.0000   1.0000
     1.0000   1.0000   1.0000   1.0000   1.0000   1.0000   1.0000   1.0000
     1.0000   1.0000   1.0000   1.0000   1.0000   1.0000   1.0000   1.0000
     1.0000   1.0000   1.0000   1.0000   1.0000   1.0000   0.0000   0.0000
     0.0000   0.0000   0.0000   0.0000   0.0000   0.0000   0.0000   0.0000
     0.0000   0.0000   0.0000   0.0000

          k = 0.0000-0.5774 0.0000 ( 36024 PWs)   bands (ev):

   -77.3816 -77.3815 -74.4457 -74.4456 -49.5254 -49.5246 -49.2084 -49.2081
   -48.7636 -48.7626 -46.4243 -46.4231 -46.1303 -46.1299 -45.8239 -45.8226
   -18.1095 -18.0984 -17.8876 -17.8855 -17.5512 -17.5509 -17.5355 -17.5329
   -17.4855 -17.4701 -17.3979 -17.3852 -10.1262  -9.9169  -9.4952  -9.3477
    -9.2965  -9.2753  -9.0261  -8.9645  -8.8992  -8.8629  -8.5400  -8.4472
    -8.4186  -8.2147  -8.2114  -8.0252  -8.0129  -7.9362  -7.8372  -7.6772
    -7.6305  -7.4858  -7.3927  -7.3130  -7.3056  -7.0047  -6.8956  -6.8195
    -6.8183  -6.6638  -6.6635  -6.4887  -6.4329  -6.3511  -6.2810  -6.2225
    -5.9722  -5.9569  -5.8417  -5.7471  -5.7354  -5.5074  -4.3336  -4.2792
    -4.2695  -4.1346  -3.9030  -3.8815  -3.5760  -3.4510  -3.4261  -3.3095
    -2.9181  -2.7885  -2.6922  -2.6549

     occupation numbers 
     1.0000   1.0000   1.0000   1.0000   1.0000   1.0000   1.0000   1.0000
     1.0000   1.0000   1.0000   1.0000   1.0000   1.0000   1.0000   1.0000
     1.0000   1.0000   1.0000   1.0000   1.0000   1.0000   1.0000   1.0000
     1.0000   1.0000   1.0000   1.0000   1.0000   1.0000   1.0000   1.0000
     1.0000   1.0000   1.0000   1.0000   1.0000   1.0000   1.0000   1.0000
     1.0000   1.0000   1.0000   1.0000   1.0000   1.0000   1.0000   1.0000
     1.0000   1.0000   1.0000   1.0000   1.0000   1.0000   1.0000   1.0000
     1.0000   1.0000   1.0000   1.0000   1.0000   1.0000   1.0000   1.0000
     1.0000   1.0000   1.0000   1.0000   1.0000   1.0000   0.0000   0.0000
     0.0000   0.0000   0.0000   0.0000   0.0000   0.0000   0.0000   0.0000
     0.0000   0.0000   0.0000   0.0000

          k = 0.1250 0.2165 0.0000 ( 36103 PWs)   bands (ev):

   -77.3817 -77.3815 -74.4458 -74.4456 -49.5261 -49.5239 -49.2086 -49.2079
   -48.7644 -48.7619 -46.4251 -46.4223 -46.1307 -46.1297 -45.8249 -45.8217
   -18.3872 -18.3712 -17.7052 -17.6870 -17.5686 -17.5583 -17.5083 -17.4932
   -17.3748 -17.3679 -17.3598 -17.3536 -10.1211  -9.8954  -9.6461  -9.4498
    -9.2975  -9.2478  -9.1778  -9.1324  -9.1128  -9.0036  -8.6452  -8.5657
    -8.3766  -8.3536  -8.1656  -8.0567  -7.9534  -7.8505  -7.7393  -7.6167
    -7.6122  -7.5561  -7.4142  -7.2936  -7.2482  -7.1821  -7.0536  -6.9605
    -6.8140  -6.6456  -6.5027  -6.4145  -6.3314  -6.2307  -6.1274  -6.0914
    -5.9721  -5.9449  -5.8728  -5.7222  -5.6593  -5.3965  -4.4109  -4.3056
    -4.2539  -3.9710  -3.7757  -3.7325  -3.5758  -3.5131  -3.4396  -3.3894
    -2.9107  -2.8080  -2.7393  -2.6025

     occupation numbers 
     1.0000   1.0000   1.0000   1.0000   1.0000   1.0000   1.0000   1.0000
     1.0000   1.0000   1.0000   1.0000   1.0000   1.0000   1.0000   1.0000
     1.0000   1.0000   1.0000   1.0000   1.0000   1.0000   1.0000   1.0000
     1.0000   1.0000   1.0000   1.0000   1.0000   1.0000   1.0000   1.0000
     1.0000   1.0000   1.0000   1.0000   1.0000   1.0000   1.0000   1.0000
     1.0000   1.0000   1.0000   1.0000   1.0000   1.0000   1.0000   1.0000
     1.0000   1.0000   1.0000   1.0000   1.0000   1.0000   1.0000   1.0000
     1.0000   1.0000   1.0000   1.0000   1.0000   1.0000   1.0000   1.0000
     1.0000   1.0000   1.0000   1.0000   1.0000   1.0000   0.0000   0.0000
     0.0000   0.0000   0.0000   0.0000   0.0000   0.0000   0.0000   0.0000
     0.0000   0.0000   0.0000   0.0000

          k = 0.1250 0.3608 0.0000 ( 36097 PWs)   bands (ev):

   -77.3816 -77.3816 -74.4458 -74.4457 -49.5258 -49.5242 -49.2085 -49.2080
   -48.7640 -48.7622 -46.4247 -46.4227 -46.1305 -46.1298 -45.8244 -45.8221
   -18.2682 -18.2548 -17.6974 -17.6918 -17.6406 -17.6227 -17.5551 -17.5401
   -17.4084 -17.3930 -17.3840 -17.3703 -10.0724  -9.8573  -9.6224  -9.4246
    -9.2941  -9.2531  -9.1720  -9.1031  -9.0531  -8.9399  -8.5192  -8.5037
    -8.3970  -8.2429  -8.1360  -8.0690  -7.9330  -7.7853  -7.7131  -7.6808
    -7.5902  -7.4747  -7.3744  -7.3300  -7.2022  -7.1021  -7.0514  -6.9647
    -6.8366  -6.7240  -6.5780  -6.5036  -6.3834  -6.3073  -6.2436  -6.0949
    -5.9694  -5.9380  -5.8776  -5.8091  -5.7037  -5.4503  -4.3936  -4.3051
    -4.2391  -4.0693  -3.8197  -3.7764  -3.5822  -3.5021  -3.4016  -3.3623
    -2.9126  -2.7841  -2.7364  -2.6490

     occupation numbers 
     1.0000   1.0000   1.0000   1.0000   1.0000   1.0000   1.0000   1.0000
     1.0000   1.0000   1.0000   1.0000   1.0000   1.0000   1.0000   1.0000
     1.0000   1.0000   1.0000   1.0000   1.0000   1.0000   1.0000   1.0000
     1.0000   1.0000   1.0000   1.0000   1.0000   1.0000   1.0000   1.0000
     1.0000   1.0000   1.0000   1.0000   1.0000   1.0000   1.0000   1.0000
     1.0000   1.0000   1.0000   1.0000   1.0000   1.0000   1.0000   1.0000
     1.0000   1.0000   1.0000   1.0000   1.0000   1.0000   1.0000   1.0000
     1.0000   1.0000   1.0000   1.0000   1.0000   1.0000   1.0000   1.0000
     1.0000   1.0000   1.0000   1.0000   1.0000   1.0000   0.0000   0.0000
     0.0000   0.0000   0.0000   0.0000   0.0000   0.0000   0.0000   0.0000
     0.0000   0.0000   0.0000   0.0000

          k = 0.1250 0.5052 0.0000 ( 36022 PWs)   bands (ev):

   -77.3816 -77.3815 -74.4457 -74.4456 -49.5254 -49.5246 -49.2084 -49.2081
   -48.7636 -48.7626 -46.4243 -46.4231 -46.1303 -46.1299 -45.8239 -45.8226
   -18.1246 -18.1139 -17.8493 -17.8478 -17.5827 -17.5678 -17.5643 -17.5468
   -17.4642 -17.4484 -17.3976 -17.3842 -10.0498  -9.8407  -9.5397  -9.3528
    -9.3007  -9.2449  -9.1093  -8.9823  -8.9475  -8.9142  -8.5649  -8.4791
    -8.4311  -8.3333  -8.1829  -8.1226  -7.9367  -7.8623  -7.8108  -7.6360
    -7.5969  -7.4677  -7.4135  -7.2675  -7.2144  -7.0044  -6.9203  -6.8608
    -6.7874  -6.7035  -6.6404  -6.4833  -6.4648  -6.3755  -6.2679  -6.1792
    -5.9624  -5.9386  -5.8790  -5.7462  -5.7253  -5.5023  -4.3266  -4.3065
    -4.2056  -4.1155  -3.8765  -3.8566  -3.5746  -3.5328  -3.3801  -3.3227
    -2.8720  -2.7782  -2.6920  -2.6601

     occupation numbers 
     1.0000   1.0000   1.0000   1.0000   1.0000   1.0000   1.0000   1.0000
     1.0000   1.0000   1.0000   1.0000   1.0000   1.0000   1.0000   1.0000
     1.0000   1.0000   1.0000   1.0000   1.0000   1.0000   1.0000   1.0000
     1.0000   1.0000   1.0000   1.0000   1.0000   1.0000   1.0000   1.0000
     1.0000   1.0000   1.0000   1.0000   1.0000   1.0000   1.0000   1.0000
     1.0000   1.0000   1.0000   1.0000   1.0000   1.0000   1.0000   1.0000
     1.0000   1.0000   1.0000   1.0000   1.0000   1.0000   1.0000   1.0000
     1.0000   1.0000   1.0000   1.0000   1.0000   1.0000   1.0000   1.0000
     1.0000   1.0000   1.0000   1.0000   1.0000   1.0000   0.0000   0.0000
     0.0000   0.0000   0.0000   0.0000   0.0000   0.0000   0.0000   0.0000
     0.0000   0.0000   0.0000   0.0000

          k = 0.2500 0.4330 0.0000 ( 36033 PWs)   bands (ev):

   -77.3816 -77.3815 -74.4457 -74.4457 -49.5255 -49.5245 -49.2083 -49.2081
   -48.7637 -48.7626 -46.4243 -46.4231 -46.1303 -46.1299 -45.8239 -45.8226
   -18.1371 -18.1267 -17.8057 -17.8051 -17.6212 -17.6061 -17.5740 -17.5565
   -17.4434 -17.4274 -17.4018 -17.3880  -9.9339  -9.7246  -9.6317  -9.4332
    -9.2723  -9.2296  -9.1240  -9.0886  -8.9778  -8.9453  -8.5906  -8.4895
    -8.4694  -8.3531  -8.2070  -8.1137  -7.9460  -7.8314  -7.7587  -7.6531
    -7.6015  -7.4834  -7.2668  -7.2178  -7.1597  -7.0875  -6.9382  -6.8710
    -6.8031  -6.6725  -6.6392  -6.5153  -6.4518  -6.3648  -6.2251  -6.1656
    -6.0356  -5.9399  -5.8536  -5.7515  -5.7080  -5.4968  -4.3277  -4.3230
    -4.1856  -4.0564  -3.8677  -3.7816  -3.6490  -3.5412  -3.3602  -3.3406
    -2.8438  -2.7481  -2.6890  -2.6647

     occupation numbers 
     1.0000   1.0000   1.0000   1.0000   1.0000   1.0000   1.0000   1.0000
     1.0000   1.0000   1.0000   1.0000   1.0000   1.0000   1.0000   1.0000
     1.0000   1.0000   1.0000   1.0000   1.0000   1.0000   1.0000   1.0000
     1.0000   1.0000   1.0000   1.0000   1.0000   1.0000   1.0000   1.0000
     1.0000   1.0000   1.0000   1.0000   1.0000   1.0000   1.0000   1.0000
     1.0000   1.0000   1.0000   1.0000   1.0000   1.0000   1.0000   1.0000
     1.0000   1.0000   1.0000   1.0000   1.0000   1.0000   1.0000   1.0000
     1.0000   1.0000   1.0000   1.0000   1.0000   1.0000   1.0000   1.0000
     1.0000   1.0000   1.0000   1.0000   1.0000   1.0000   0.0000   0.0000
     0.0000   0.0000   0.0000   0.0000   0.0000   0.0000   0.0000   0.0000
     0.0000   0.0000   0.0000   0.0000

          k = 0.2500 0.5774 0.0000 ( 36036 PWs)   bands (ev):

   -77.3816 -77.3815 -74.4457 -74.4457 -49.5252 -49.5248 -49.2083 -49.2082
   -48.7633 -48.7629 -46.4240 -46.4235 -46.1302 -46.1301 -45.8235 -45.8230
   -18.0244 -18.0164 -17.9103 -17.9074 -17.6483 -17.6332 -17.5190 -17.5016
   -17.4824 -17.4661 -17.4127 -17.3990  -9.8524  -9.6464  -9.6119  -9.4165
    -9.2661  -9.1873  -9.0932  -9.0654  -9.0041  -8.9514  -8.6497  -8.5702
    -8.4654  -8.4071  -8.3085  -8.1773  -8.0919  -7.8658  -7.6793  -7.5721
    -7.5108  -7.4289  -7.3429  -7.1810  -7.0834  -6.9956  -6.9507  -6.8448
    -6.8101  -6.7221  -6.5643  -6.5000  -6.4582  -6.4072  -6.2395  -6.2011
    -6.0385  -5.9314  -5.8475  -5.7594  -5.6386  -5.5450  -4.3294  -4.2618
    -4.1900  -4.0257  -3.8594  -3.8286  -3.6710  -3.5617  -3.3500  -3.3295
    -2.7742  -2.7583  -2.6910  -2.6290

     occupation numbers 
     1.0000   1.0000   1.0000   1.0000   1.0000   1.0000   1.0000   1.0000
     1.0000   1.0000   1.0000   1.0000   1.0000   1.0000   1.0000   1.0000
     1.0000   1.0000   1.0000   1.0000   1.0000   1.0000   1.0000   1.0000
     1.0000   1.0000   1.0000   1.0000   1.0000   1.0000   1.0000   1.0000
     1.0000   1.0000   1.0000   1.0000   1.0000   1.0000   1.0000   1.0000
     1.0000   1.0000   1.0000   1.0000   1.0000   1.0000   1.0000   1.0000
     1.0000   1.0000   1.0000   1.0000   1.0000   1.0000   1.0000   1.0000
     1.0000   1.0000   1.0000   1.0000   1.0000   1.0000   1.0000   1.0000
     1.0000   1.0000   1.0000   1.0000   1.0000   1.0000   0.0000   0.0000
     0.0000   0.0000   0.0000   0.0000   0.0000   0.0000   0.0000   0.0000
     0.0000   0.0000   0.0000   0.0000

          k = 0.0000-0.1443 0.0000 ( 36080 PWs)   bands (ev):

   -77.3816 -77.3815 -74.4458 -74.4456 -49.5263 -49.5237 -49.2086 -49.2078
   -48.7646 -48.7617 -46.4254 -46.4220 -46.1307 -46.1296 -45.8251 -45.8214
   -18.4514 -18.4340 -17.7412 -17.7227 -17.4965 -17.4834 -17.4705 -17.4556
   -17.3619 -17.3609 -17.3472 -17.3458 -10.1414  -9.9060  -9.6475  -9.4512
    -9.2884  -9.2728  -9.1483  -9.1307  -9.0854  -9.0288  -8.7136  -8.6985
    -8.4941  -8.3487  -8.2429  -8.1422  -8.0276  -7.8461  -7.7904  -7.6903
    -7.6294  -7.5788  -7.5551  -7.3036  -7.2379  -7.1502  -7.0028  -6.9439
    -6.7345  -6.6126  -6.4360  -6.3615  -6.2382  -6.1510  -6.1022  -6.0028
    -5.9579  -5.9507  -5.8993  -5.6523  -5.5231  -5.3296  -4.4117  -4.3361
    -4.1789  -3.8661  -3.7860  -3.6807  -3.6530  -3.5814  -3.4296  -3.3759
    -2.8751  -2.8263  -2.7076  -2.5390

     occupation numbers 
     1.0000   1.0000   1.0000   1.0000   1.0000   1.0000   1.0000   1.0000
     1.0000   1.0000   1.0000   1.0000   1.0000   1.0000   1.0000   1.0000
     1.0000   1.0000   1.0000   1.0000   1.0000   1.0000   1.0000   1.0000
     1.0000   1.0000   1.0000   1.0000   1.0000   1.0000   1.0000   1.0000
     1.0000   1.0000   1.0000   1.0000   1.0000   1.0000   1.0000   1.0000
     1.0000   1.0000   1.0000   1.0000   1.0000   1.0000   1.0000   1.0000
     1.0000   1.0000   1.0000   1.0000   1.0000   1.0000   1.0000   1.0000
     1.0000   1.0000   1.0000   1.0000   1.0000   1.0000   1.0000   1.0000
     1.0000   1.0000   1.0000   1.0000   1.0000   1.0000   0.0000   0.0000
     0.0000   0.0000   0.0000   0.0000   0.0000   0.0000   0.0000   0.0000
     0.0000   0.0000   0.0000   0.0000

          k = 0.0000-0.2887 0.0000 ( 36074 PWs)   bands (ev):

   -77.3816 -77.3815 -74.4458 -74.4456 -49.5260 -49.5240 -49.2086 -49.2079
   -48.7643 -48.7620 -46.4250 -46.4224 -46.1306 -46.1297 -45.8248 -45.8218
   -18.3564 -18.3410 -17.6882 -17.6700 -17.6139 -17.6048 -17.5079 -17.4926
   -17.3825 -17.3753 -17.3673 -17.3615 -10.1260  -9.9046  -9.6277  -9.4306
    -9.2850  -9.2570  -9.1757  -9.1451  -9.0832  -8.9819  -8.6035  -8.5311
    -8.3874  -8.3094  -8.1750  -8.0005  -7.9868  -7.8288  -7.7165  -7.6109
    -7.5761  -7.5441  -7.3825  -7.2951  -7.2280  -7.1785  -7.0718  -6.9774
    -6.8227  -6.7173  -6.5473  -6.4388  -6.3303  -6.2216  -6.1913  -6.1014
    -5.9796  -5.9173  -5.8890  -5.7602  -5.6719  -5.4204  -4.3979  -4.2932
    -4.2573  -4.0365  -3.8175  -3.7023  -3.5915  -3.4702  -3.4478  -3.3852
    -2.8976  -2.8333  -2.7371  -2.6273

     occupation numbers 
     1.0000   1.0000   1.0000   1.0000   1.0000   1.0000   1.0000   1.0000
     1.0000   1.0000   1.0000   1.0000   1.0000   1.0000   1.0000   1.0000
     1.0000   1.0000   1.0000   1.0000   1.0000   1.0000   1.0000   1.0000
     1.0000   1.0000   1.0000   1.0000   1.0000   1.0000   1.0000   1.0000
     1.0000   1.0000   1.0000   1.0000   1.0000   1.0000   1.0000   1.0000
     1.0000   1.0000   1.0000   1.0000   1.0000   1.0000   1.0000   1.0000
     1.0000   1.0000   1.0000   1.0000   1.0000   1.0000   1.0000   1.0000
     1.0000   1.0000   1.0000   1.0000   1.0000   1.0000   1.0000   1.0000
     1.0000   1.0000   1.0000   1.0000   1.0000   1.0000   0.0000   0.0000
     0.0000   0.0000   0.0000   0.0000   0.0000   0.0000   0.0000   0.0000
     0.0000   0.0000   0.0000   0.0000

          k = 0.0000-0.4330 0.0000 ( 36058 PWs)   bands (ev):

   -77.3816 -77.3815 -74.4457 -74.4456 -49.5257 -49.5243 -49.2084 -49.2080
   -48.7639 -48.7624 -46.4246 -46.4228 -46.1304 -46.1298 -45.8242 -45.8223
   -18.2163 -18.2039 -17.7731 -17.7690 -17.6123 -17.5945 -17.5392 -17.5236
   -17.4333 -17.4178 -17.3911 -17.3782 -10.1211  -9.9092  -9.5515  -9.3636
    -9.3118  -9.2638  -9.1416  -9.0167  -8.9802  -8.9091  -8.5359  -8.4485
    -8.3518  -8.2883  -8.1352  -8.0973  -7.9704  -7.7580  -7.7237  -7.6620
    -7.6109  -7.4861  -7.4514  -7.3484  -7.2581  -7.0068  -6.9957  -6.8599
    -6.8288  -6.7948  -6.6941  -6.4822  -6.3737  -6.3043  -6.2822  -6.1156
    -5.9791  -5.9402  -5.8722  -5.7906  -5.7220  -5.4738  -4.3654  -4.2812
    -4.2077  -4.1816  -3.8597  -3.8285  -3.5672  -3.4519  -3.4371  -3.3318
    -2.9027  -2.8167  -2.7166  -2.6633

     occupation numbers 
     1.0000   1.0000   1.0000   1.0000   1.0000   1.0000   1.0000   1.0000
     1.0000   1.0000   1.0000   1.0000   1.0000   1.0000   1.0000   1.0000
     1.0000   1.0000   1.0000   1.0000   1.0000   1.0000   1.0000   1.0000
     1.0000   1.0000   1.0000   1.0000   1.0000   1.0000   1.0000   1.0000
     1.0000   1.0000   1.0000   1.0000   1.0000   1.0000   1.0000   1.0000
     1.0000   1.0000   1.0000   1.0000   1.0000   1.0000   1.0000   1.0000
     1.0000   1.0000   1.0000   1.0000   1.0000   1.0000   1.0000   1.0000
     1.0000   1.0000   1.0000   1.0000   1.0000   1.0000   1.0000   1.0000
     1.0000   1.0000   1.0000   1.0000   1.0000   1.0000   0.0000   0.0000
     0.0000   0.0000   0.0000   0.0000   0.0000   0.0000   0.0000   0.0000
     0.0000   0.0000   0.0000   0.0000

          k = 0.1250-0.3608 0.0000 ( 36097 PWs)   bands (ev):

   -77.3816 -77.3816 -74.4458 -74.4457 -49.5258 -49.5242 -49.2085 -49.2080
   -48.7640 -48.7622 -46.4247 -46.4227 -46.1305 -46.1298 -45.8244 -45.8221
   -18.2682 -18.2548 -17.6974 -17.6918 -17.6406 -17.6227 -17.5551 -17.5401
   -17.4084 -17.3930 -17.3840 -17.3703 -10.0724  -9.8573  -9.6224  -9.4246
    -9.2941  -9.2531  -9.1720  -9.1031  -9.0531  -8.9399  -8.5192  -8.5037
    -8.3970  -8.2429  -8.1360  -8.0690  -7.9330  -7.7853  -7.7131  -7.6808
    -7.5902  -7.4747  -7.3744  -7.3300  -7.2022  -7.1021  -7.0514  -6.9647
    -6.8366  -6.7240  -6.5780  -6.5036  -6.3834  -6.3073  -6.2436  -6.0949
    -5.9694  -5.9380  -5.8776  -5.8091  -5.7037  -5.4503  -4.3936  -4.3051
    -4.2391  -4.0693  -3.8197  -3.7764  -3.5822  -3.5021  -3.4016  -3.3623
    -2.9126  -2.7841  -2.7364  -2.6490

     occupation numbers 
     1.0000   1.0000   1.0000   1.0000   1.0000   1.0000   1.0000   1.0000
     1.0000   1.0000   1.0000   1.0000   1.0000   1.0000   1.0000   1.0000
     1.0000   1.0000   1.0000   1.0000   1.0000   1.0000   1.0000   1.0000
     1.0000   1.0000   1.0000   1.0000   1.0000   1.0000   1.0000   1.0000
     1.0000   1.0000   1.0000   1.0000   1.0000   1.0000   1.0000   1.0000
     1.0000   1.0000   1.0000   1.0000   1.0000   1.0000   1.0000   1.0000
     1.0000   1.0000   1.0000   1.0000   1.0000   1.0000   1.0000   1.0000
     1.0000   1.0000   1.0000   1.0000   1.0000   1.0000   1.0000   1.0000
     1.0000   1.0000   1.0000   1.0000   1.0000   1.0000   0.0000   0.0000
     0.0000   0.0000   0.0000   0.0000   0.0000   0.0000   0.0000   0.0000
     0.0000   0.0000   0.0000   0.0000

          k = 0.1250-0.5052 0.0000 ( 36022 PWs)   bands (ev):

   -77.3816 -77.3815 -74.4457 -74.4456 -49.5254 -49.5246 -49.2084 -49.2081
   -48.7636 -48.7626 -46.4243 -46.4231 -46.1303 -46.1299 -45.8239 -45.8226
   -18.1246 -18.1139 -17.8493 -17.8478 -17.5827 -17.5678 -17.5643 -17.5468
   -17.4642 -17.4484 -17.3976 -17.3842 -10.0498  -9.8407  -9.5397  -9.3528
    -9.3007  -9.2449  -9.1093  -8.9823  -8.9475  -8.9142  -8.5649  -8.4791
    -8.4311  -8.3333  -8.1829  -8.1226  -7.9367  -7.8623  -7.8108  -7.6360
    -7.5969  -7.4677  -7.4135  -7.2675  -7.2144  -7.0044  -6.9203  -6.8608
    -6.7874  -6.7035  -6.6404  -6.4833  -6.4648  -6.3755  -6.2679  -6.1792
    -5.9624  -5.9386  -5.8790  -5.7462  -5.7253  -5.5023  -4.3266  -4.3065
    -4.2056  -4.1155  -3.8765  -3.8566  -3.5746  -3.5328  -3.3801  -3.3227
    -2.8720  -2.7782  -2.6920  -2.6601

     occupation numbers 
     1.0000   1.0000   1.0000   1.0000   1.0000   1.0000   1.0000   1.0000
     1.0000   1.0000   1.0000   1.0000   1.0000   1.0000   1.0000   1.0000
     1.0000   1.0000   1.0000   1.0000   1.0000   1.0000   1.0000   1.0000
     1.0000   1.0000   1.0000   1.0000   1.0000   1.0000   1.0000   1.0000
     1.0000   1.0000   1.0000   1.0000   1.0000   1.0000   1.0000   1.0000
     1.0000   1.0000   1.0000   1.0000   1.0000   1.0000   1.0000   1.0000
     1.0000   1.0000   1.0000   1.0000   1.0000   1.0000   1.0000   1.0000
     1.0000   1.0000   1.0000   1.0000   1.0000   1.0000   1.0000   1.0000
     1.0000   1.0000   1.0000   1.0000   1.0000   1.0000   0.0000   0.0000
     0.0000   0.0000   0.0000   0.0000   0.0000   0.0000   0.0000   0.0000
     0.0000   0.0000   0.0000   0.0000

     the Fermi energy is    -4.7646 ev

!    total energy              =    -512.08955044 Ry
     estimated scf accuracy    <          1.9E-14 Ry
     smearing contrib. (-TS)   =      -0.00000000 Ry
     internal energy E=F+TS    =    -512.08955044 Ry

     The total energy is F=E-TS. E is the sum of the following terms:
     one-electron contribution =   -1703.19139697 Ry
     hartree contribution      =     845.86995975 Ry
     xc contribution           =     -99.94920362 Ry
     ewald contribution        =     445.18109040 Ry

     total magnetization       =     0.00     0.00     6.03 Bohr mag/cell
     absolute magnetization    =     7.16 Bohr mag/cell

     convergence has been achieved in  19 iterations

     Writing all to output data dir ./cri3_70Ry_k8x8x1.save/
 
     init_run     :      6.94s CPU      7.46s WALL (       1 calls)
     electrons    :    479.63s CPU    493.79s WALL (       1 calls)

     Called by init_run:
     wfcinit      :      6.28s CPU      6.73s WALL (       1 calls)
     wfcinit:atom :      0.07s CPU      0.11s WALL (      15 calls)
     wfcinit:wfcr :      5.86s CPU      6.19s WALL (      15 calls)
     potinit      :      0.13s CPU      0.15s WALL (       1 calls)
     hinit0       :      0.22s CPU      0.25s WALL (       1 calls)

     Called by electrons:
     c_bands      :    430.29s CPU    441.97s WALL (      19 calls)
     sum_band     :     48.01s CPU     50.02s WALL (      19 calls)
     v_of_rho     :      0.19s CPU      0.21s WALL (      20 calls)
     v_h          :      0.04s CPU      0.04s WALL (      20 calls)
     v_xc         :      0.15s CPU      0.16s WALL (      20 calls)
     mix_rho      :      0.97s CPU      1.00s WALL (      19 calls)

     Called by c_bands:
     init_us_2    :      3.65s CPU      3.70s WALL (     585 calls)
     init_us_2:cp :      3.64s CPU      3.70s WALL (     585 calls)
     cegterg      :    380.89s CPU    392.17s WALL (     296 calls)

     Called by sum_band:
     sum_band:wei :      0.01s CPU      0.01s WALL (      19 calls)
     sum_band:loo :     47.69s CPU     49.70s WALL (      19 calls)
     sum_band:buf :      1.13s CPU      1.15s WALL (     285 calls)
     sum_band:ini :      1.77s CPU      1.79s WALL (     285 calls)

     Called by *egterg:
     cdiaghg      :     16.23s CPU     19.03s WALL (    2092 calls)
     cegterg:over :     29.95s CPU     30.41s WALL (    1807 calls)
     cegterg:upda :     38.62s CPU     39.20s WALL (    1807 calls)
     cegterg:last :     45.83s CPU     46.82s WALL (     742 calls)
     cdiaghg:chol :      1.02s CPU      1.06s WALL (    2092 calls)
     cdiaghg:inve :      0.63s CPU      0.65s WALL (    2092 calls)
     cdiaghg:para :      1.39s CPU      1.43s WALL (    4184 calls)
     h_psi        :    244.53s CPU    251.02s WALL (    2118 calls)
     g_psi        :      1.70s CPU      1.72s WALL (    1807 calls)

     Called by h_psi:
     h_psi:calbec :     27.33s CPU     27.77s WALL (    2118 calls)
     vloc_psi     :    183.39s CPU    188.77s WALL (    2118 calls)
     add_vuspsi   :     30.69s CPU     31.09s WALL (    2118 calls)

     General routines
     calbec       :     27.31s CPU     27.76s WALL (    2118 calls)
     fft          :      0.16s CPU      0.19s WALL (     174 calls)
     ffts         :      0.06s CPU      0.06s WALL (      76 calls)
     fftw         :    137.71s CPU    141.91s WALL (  351684 calls)
 
     Parallel routines
 
     PWSCF        :   8m 7.23s CPU   8m38.92s WALL

 
   This run was terminated on:  15:29:45  10Jan2024            

=------------------------------------------------------------------------------=
   JOB DONE.
=------------------------------------------------------------------------------=
