
     Program PWSCF v.7.0 starts on 10Jan2024 at 15:10: 7 

     This program is part of the open-source Quantum ESPRESSO suite
     for quantum simulation of materials; please cite
         "P. Giannozzi et al., J. Phys.:Condens. Matter 21 395502 (2009);
         "P. Giannozzi et al., J. Phys.:Condens. Matter 29 465901 (2017);
         "P. Giannozzi et al., J. Chem. Phys. 152 154105 (2020);
          URL http://www.quantum-espresso.org", 
     in publications or presentations arising from this work. More details at
     http://www.quantum-espresso.org/quote

     Parallel version (MPI), running on    24 processors

     MPI processes distributed on     1 nodes
     R & G space division:  proc/nbgrp/npool/nimage =      24
     96228 MiB available memory on the printing compute node when the environment starts
 
     Reading input from cri3-exp-soc_8x8x1.scf.in

     Current dimensions of program PWSCF are:
     Max number of different atomic species (ntypx) = 10
     Max number of k-points (npk) =  40000
     Max angular momentum in pseudopotentials (lmaxx) =  4

     Subspace diagonalization in iterative solution of the eigenvalue problem:
     one sub-group per band group will be used
     scalapack distributed-memory algorithm (size of sub-group:  4*  4 procs)

 
     Parallelization info
     --------------------
     sticks:   dense  smooth     PW     G-vecs:    dense   smooth      PW
     Min         174     174     46                17524    17524    2404
     Max         175     175     47                17533    17533    2411
     Sum        4177    4177   1111               420595   420595   57791
 
     Using Slab Decomposition
 


     bravais-lattice index     =            4
     lattice parameter (alat)  =      12.9767  a.u.
     unit-cell volume          =    3645.8815 (a.u.)^3
     number of atoms/cell      =            8
     number of atomic types    =            2
     number of electrons       =        70.00
     number of Kohn-Sham states=           84
     kinetic-energy cutoff     =      90.0000  Ry
     charge density cutoff     =     360.0000  Ry
     scf convergence threshold =      1.0E-13
     mixing beta               =       0.7000
     number of iterations used =            8  plain     mixing
     Exchange-correlation= PZ
                           (   1   1   0   0   0   0   0)
     Noncollinear calculation with spin-orbit


     celldm(1)=  12.976749  celldm(2)=   0.000000  celldm(3)=   1.926523
     celldm(4)=   0.000000  celldm(5)=   0.000000  celldm(6)=   0.000000

     crystal axes: (cart. coord. in units of alat)
               a(1) = (   1.000000   0.000000   0.000000 )  
               a(2) = (  -0.500000   0.866025   0.000000 )  
               a(3) = (   0.000000   0.000000   1.926523 )  

     reciprocal axes: (cart. coord. in units 2 pi/alat)
               b(1) = (  1.000000  0.577350  0.000000 )  
               b(2) = (  0.000000  1.154701  0.000000 )  
               b(3) = (  0.000000  0.000000  0.519070 )  


     PseudoPot. # 1 for Cr read from file:
     ./Cr_Alejandro.upf
     MD5 check sum: 19f8874af457815d5c8e16c7b8c57f71
     Pseudo is Norm-conserving + core correction, Zval = 14.0
     Generated using ONCVPSP code by D. R. Hamann
     Using radial grid of 1600 points, 10 beta functions with: 
                l(1) =   0
                l(2) =   0
                l(3) =   1
                l(4) =   1
                l(5) =   1
                l(6) =   1
                l(7) =   2
                l(8) =   2
                l(9) =   2
               l(10) =   2

     PseudoPot. # 2 for I  read from file:
     ./I_Alejandro.upf
     MD5 check sum: d0d4d45a39a9ecd37d4d9deb6bd296a3
     Pseudo is Norm-conserving + core correction, Zval =  7.0
     Generated using ONCVPSP code by D. R. Hamann
     Using radial grid of 1196 points, 10 beta functions with: 
                l(1) =   0
                l(2) =   0
                l(3) =   1
                l(4) =   1
                l(5) =   1
                l(6) =   1
                l(7) =   2
                l(8) =   2
                l(9) =   2
               l(10) =   2

     atomic species   valence    mass     pseudopotential
        Cr            14.00    51.99000     Cr( 1.00)
        I              7.00   126.90000     I ( 1.00)

      6 Sym. Ops. (no inversion) found ( 3 have fractional translation)


                                    s                        frac. trans.

      isym =  1     identity                                     

 Time Reversal            0
 cryst.   s( 1) = (     1          0          0      )
                  (     0          1          0      )
                  (     0          0          1      )

 cart.    s( 1) = (  1.0000000  0.0000000  0.0000000 )
                  (  0.0000000  1.0000000  0.0000000 )
                  (  0.0000000  0.0000000  1.0000000 )


      isym =  2     120 deg rotation - cryst. axis [0,0,1]       

 Time Reversal            0
 cryst.   s( 2) = (     0          1          0      )
                  (    -1         -1          0      )
                  (     0          0          1      )

 cart.    s( 2) = ( -0.5000000 -0.8660254  0.0000000 )
                  (  0.8660254 -0.5000000  0.0000000 )
                  (  0.0000000  0.0000000  1.0000000 )


      isym =  3     120 deg rotation - cryst. axis [0,0,-1]      

 Time Reversal            0
 cryst.   s( 3) = (    -1         -1          0      )
                  (     1          0          0      )
                  (     0          0          1      )

 cart.    s( 3) = ( -0.5000000  0.8660254  0.0000000 )
                  ( -0.8660254 -0.5000000  0.0000000 )
                  (  0.0000000  0.0000000  1.0000000 )


      isym =  4     inv. 180 deg rotation - cart. axis [0,1,0]   

 Time Reversal            1
 cryst.   s( 4) = (     1          0          0      )    f =( -0.3333333 )
                  (    -1         -1          0      )       (  0.3333333 )
                  (     0          0          1      )       (  0.0000000 )

 cart.    s( 4) = (  1.0000000  0.0000000  0.0000000 )    f =( -0.5000000 )
                  (  0.0000000 -1.0000000  0.0000000 )       (  0.2886751 )
                  (  0.0000000  0.0000000  1.0000000 )       (  0.0000000 )


      isym =  5     inv. 180 deg rotation - cryst. axis [1,-1,0] 

 Time Reversal            1
 cryst.   s( 5) = (     0          1          0      )    f =( -0.3333333 )
                  (     1          0          0      )       (  0.3333333 )
                  (     0          0          1      )       (  0.0000000 )

 cart.    s( 5) = ( -0.5000000  0.8660254  0.0000000 )    f =( -0.5000000 )
                  (  0.8660254  0.5000000  0.0000000 )       (  0.2886751 )
                  (  0.0000000  0.0000000  1.0000000 )       (  0.0000000 )


      isym =  6     inv. 180 deg rotation - cryst. axis [2,1,0]  

 Time Reversal            1
 cryst.   s( 6) = (    -1         -1          0      )    f =( -0.3333333 )
                  (     0          1          0      )       (  0.3333333 )
                  (     0          0          1      )       (  0.0000000 )

 cart.    s( 6) = ( -0.5000000 -0.8660254  0.0000000 )    f =( -0.5000000 )
                  ( -0.8660254  0.5000000  0.0000000 )       (  0.2886751 )
                  (  0.0000000  0.0000000  1.0000000 )       (  0.0000000 )


     the magnetic double point group is C_3v (3m)   [C_3 (3)    ]
     using the double point group C_3 (3)    
     there are  6 classes and  3 irreducible representations
     the character table:

       E     -E    C3    -C3   C3^2  -C3^2
                                          
G_4    1.00 -1.00  0.50 -0.50  0.50 -0.50
G_5    1.00 -1.00  0.50 -0.50  0.50 -0.50
G_6    1.00 -1.00 -1.00  1.00 -1.00  1.00

     imaginary part

       E     -E    C3    -C3   C3^2  -C3^2
                                          
G_4    0.00  0.00  0.87 -0.87 -0.87  0.87
G_5    0.00  0.00 -0.87  0.87  0.87 -0.87
G_6    0.00  0.00  0.00  0.00  0.00  0.00

     the symmetry operations in each class and the name of the first element:

     E             1
          identity                                               
     -E           -1
          identity E                                             
     C3            2
          120 deg rotation - cryst. axis [0,0,1]                 
     -C3          -2
          120 deg rotation - cryst. axis [0,0,1] E               
     C3^2          3
          120 deg rotation - cryst. axis [0,0,-1]                
     -C3^2        -3
          120 deg rotation - cryst. axis [0,0,-1] E              

   Cartesian axes

     site n.     atom                  positions (alat units)
         1           Cr  tau(   1) = (   0.0000000   0.0000000   0.4846161  )
         2           Cr  tau(   2) = (   0.0000000   0.5773503   0.4846161  )
         3           I   tau(   3) = (  -0.1753225   0.8510331   0.7123856  )
         4           I   tau(   4) = (   0.3246775   0.5923426   0.7123856  )
         5           I   tau(   5) = (  -0.1493550   0.2886751   0.7123856  )
         6           I   tau(   6) = (  -0.3246775   0.5923426   0.2568467  )
         7           I   tau(   7) = (   0.1753225   0.8510331   0.2568467  )
         8           I   tau(   8) = (   0.1493550   0.2886751   0.2568467  )

   Crystallographic axes

     site n.     atom                  positions (cryst. coord.)
         1           Cr  tau(   1) = (  0.0000000  0.0000000  0.2515496  )
         2           Cr  tau(   2) = (  0.3333333  0.6666667  0.2515496  )
         3           I   tau(   3) = (  0.3160217  0.9826883  0.3697779  )
         4           I   tau(   4) = (  0.6666667  0.6839783  0.3697779  )
         5           I   tau(   5) = (  0.0173117  0.3333333  0.3697779  )
         6           I   tau(   6) = (  0.0173117  0.6839783  0.1333214  )
         7           I   tau(   7) = (  0.6666667  0.9826883  0.1333214  )
         8           I   tau(   8) = (  0.3160217  0.3333333  0.1333214  )

     number of k points=    15  Gaussian smearing, width (Ry)=  0.0050
                       cart. coord. in units 2pi/alat
        k(    1) = (   0.0000000   0.0000000   0.0000000), wk =   0.0156250
        k(    2) = (   0.0000000   0.1443376   0.0000000), wk =   0.0468750
        k(    3) = (   0.0000000   0.2886751   0.0000000), wk =   0.0468750
        k(    4) = (   0.0000000   0.4330127   0.0000000), wk =   0.0468750
        k(    5) = (   0.0000000  -0.5773503   0.0000000), wk =   0.0468750
        k(    6) = (   0.1250000   0.2165064   0.0000000), wk =   0.0937500
        k(    7) = (   0.1250000   0.3608439   0.0000000), wk =   0.0937500
        k(    8) = (   0.1250000   0.5051815   0.0000000), wk =   0.0937500
        k(    9) = (   0.2500000   0.4330127   0.0000000), wk =   0.0937500
        k(   10) = (   0.2500000   0.5773503   0.0000000), wk =   0.0937500
        k(   11) = (   0.0000000  -0.1443376   0.0000000), wk =   0.0468750
        k(   12) = (   0.0000000  -0.2886751   0.0000000), wk =   0.0468750
        k(   13) = (   0.0000000  -0.4330127   0.0000000), wk =   0.0468750
        k(   14) = (   0.1250000  -0.3608439   0.0000000), wk =   0.0937500
        k(   15) = (   0.1250000  -0.5051815   0.0000000), wk =   0.0937500

                       cryst. coord.
        k(    1) = (   0.0000000   0.0000000   0.0000000), wk =   0.0156250
        k(    2) = (   0.0000000   0.1250000   0.0000000), wk =   0.0468750
        k(    3) = (   0.0000000   0.2500000   0.0000000), wk =   0.0468750
        k(    4) = (   0.0000000   0.3750000   0.0000000), wk =   0.0468750
        k(    5) = (   0.0000000  -0.5000000   0.0000000), wk =   0.0468750
        k(    6) = (   0.1250000   0.1250000   0.0000000), wk =   0.0937500
        k(    7) = (   0.1250000   0.2500000   0.0000000), wk =   0.0937500
        k(    8) = (   0.1250000   0.3750000   0.0000000), wk =   0.0937500
        k(    9) = (   0.2500000   0.2500000   0.0000000), wk =   0.0937500
        k(   10) = (   0.2500000   0.3750000   0.0000000), wk =   0.0937500
        k(   11) = (   0.0000000  -0.1250000   0.0000000), wk =   0.0468750
        k(   12) = (   0.0000000  -0.2500000   0.0000000), wk =   0.0468750
        k(   13) = (   0.0000000  -0.3750000   0.0000000), wk =   0.0468750
        k(   14) = (   0.1250000  -0.3750000   0.0000000), wk =   0.0937500
        k(   15) = (   0.1250000  -0.5000000   0.0000000), wk =   0.0937500

     Dense  grid:   420595 G-vectors     FFT dimensions: (  81,  81, 160)

     Dynamical RAM for                 wfc:       5.61 MB

     Dynamical RAM for     wfc (w. buffer):      89.82 MB

     Dynamical RAM for           str. fact:       0.53 MB

     Dynamical RAM for           local pot:       0.00 MB

     Dynamical RAM for          nlocal pot:       9.09 MB

     Dynamical RAM for                qrad:       7.98 MB

     Dynamical RAM for          rho,v,vnew:       7.41 MB

     Dynamical RAM for               rhoin:       2.47 MB

     Dynamical RAM for            rho*nmix:      17.12 MB

     Dynamical RAM for           G-vectors:       1.14 MB

     Dynamical RAM for          h,s,v(r/c):       0.08 MB

     Dynamical RAM for          <psi|beta>:       0.70 MB

     Dynamical RAM for                 psi:      11.23 MB

     Dynamical RAM for                hpsi:      11.23 MB

     Dynamical RAM for      wfcinit/wfcrot:       9.00 MB

     Estimated static dynamical RAM per process >     122.05 MB

     Estimated max dynamical RAM per process >     162.40 MB

     Estimated total dynamical RAM >       3.81 GB
 ----2D----2D----2D----2D----2D----2D----2D----2D----2D----2D----2D----2D
  The code is running with the 2D cutoff
  Please refer to:
  Sohier, T., Calandra, M., & Mauri, F. (2017), 
  Density functional perturbation theory for gated two-dimensional heterostructu
 res:
  Theoretical developments and application to flexural phonons in graphene.
  Physical Review B, 96(7), 75448. https://doi.org/10.1103/PhysRevB.96.075448
 ----2D----2D----2D----2D----2D----2D----2D----2D----2D----2D----2D----2D
     Generating pointlists ...
     new r_m :   0.1637 (alat units)  2.1245 (a.u.) for type    1
     new r_m :   0.1637 (alat units)  2.1245 (a.u.) for type    2

     Initial potential from superposition of free atoms

     starting charge      69.9974, renormalised to      70.0000

     negative rho (up, down):  9.872E-08 1.403E-03

 ==============================================================================
     atom number    1 relative position :    0.0000   0.0000   0.4846
     charge :    12.704010  (integrated on a sphere of radius 0.164)
     magnetization :          0.000000    0.000000   12.369140
     magnetization/charge:    0.000000    0.000000    0.973641
     polar coord.: r, theta, phi [deg] :    12.369140    0.000000  360.000000

 ==============================================================================

 ==============================================================================
     atom number    2 relative position :    0.0000   0.5774   0.4846
     charge :    12.704010  (integrated on a sphere of radius 0.164)
     magnetization :          0.000000    0.000000   12.369140
     magnetization/charge:    0.000000    0.000000    0.973641
     polar coord.: r, theta, phi [deg] :    12.369140    0.000000  360.000000

 ==============================================================================

 ==============================================================================
     atom number    3 relative position :   -0.1753   0.8510   0.7124
     charge :     4.088527  (integrated on a sphere of radius 0.164)
     magnetization :          0.000000    0.000000    0.080708
     magnetization/charge:    0.000000    0.000000    0.019740
     polar coord.: r, theta, phi [deg] :     0.080708    0.000000  360.000000

 ==============================================================================

 ==============================================================================
     atom number    4 relative position :    0.3247   0.5923   0.7124
     charge :     4.088527  (integrated on a sphere of radius 0.164)
     magnetization :          0.000000    0.000000    0.080708
     magnetization/charge:    0.000000    0.000000    0.019740
     polar coord.: r, theta, phi [deg] :     0.080708    0.000000  360.000000

 ==============================================================================

 ==============================================================================
     atom number    5 relative position :   -0.1494   0.2887   0.7124
     charge :     4.088527  (integrated on a sphere of radius 0.164)
     magnetization :          0.000000    0.000000    0.080708
     magnetization/charge:    0.000000    0.000000    0.019740
     polar coord.: r, theta, phi [deg] :     0.080708    0.000000  360.000000

 ==============================================================================

 ==============================================================================
     atom number    6 relative position :   -0.3247   0.5923   0.2568
     charge :     4.088714  (integrated on a sphere of radius 0.164)
     magnetization :          0.000000    0.000000    0.080708
     magnetization/charge:    0.000000    0.000000    0.019739
     polar coord.: r, theta, phi [deg] :     0.080708    0.000000  360.000000

 ==============================================================================

 ==============================================================================
     atom number    7 relative position :    0.1753   0.8510   0.2568
     charge :     4.088714  (integrated on a sphere of radius 0.164)
     magnetization :          0.000000    0.000000    0.080708
     magnetization/charge:    0.000000    0.000000    0.019739
     polar coord.: r, theta, phi [deg] :     0.080708    0.000000  360.000000

 ==============================================================================

 ==============================================================================
     atom number    8 relative position :    0.1494   0.2887   0.2568
     charge :     4.088714  (integrated on a sphere of radius 0.164)
     magnetization :          0.000000    0.000000    0.080708
     magnetization/charge:    0.000000    0.000000    0.019739
     polar coord.: r, theta, phi [deg] :     0.080708    0.000000  360.000000

 ==============================================================================
     Starting wfcs are   88 randomized atomic wfcs

     total cpu time spent up to now is       15.5 secs

     Self-consistent Calculation

     iteration #  1     ecut=    90.00 Ry     beta= 0.70
     Davidson diagonalization with overlap

---- Real-time Memory Report at c_bands before calling an iterative solver
           283 MiB given to the printing process from OS
             0 MiB allocation reported by mallinfo(arena+hblkhd)
         89674 MiB available memory on the node where the printing process lives
------------------
     c_bands:  5 eigenvalues not converged
     c_bands:  1 eigenvalues not converged
     c_bands:  1 eigenvalues not converged
     c_bands:  1 eigenvalues not converged
     c_bands:  4 eigenvalues not converged
     c_bands:  1 eigenvalues not converged
     c_bands:  1 eigenvalues not converged
     c_bands:  5 eigenvalues not converged
     c_bands:  1 eigenvalues not converged
     c_bands:  1 eigenvalues not converged
     c_bands:  5 eigenvalues not converged
     ethr =  5.00E-06,  avg # of iterations = 33.9

     negative rho (up, down):  2.251E-08 1.207E-03

     total cpu time spent up to now is      210.3 secs

     total energy              =    -511.41394437 Ry
     estimated scf accuracy    <       4.45342340 Ry

     total magnetization       =    -0.00    -0.00     6.29 Bohr mag/cell
     absolute magnetization    =    10.90 Bohr mag/cell

     iteration #  2     ecut=    90.00 Ry     beta= 0.70
     Davidson diagonalization with overlap

---- Real-time Memory Report at c_bands before calling an iterative solver
           315 MiB given to the printing process from OS
             0 MiB allocation reported by mallinfo(arena+hblkhd)
         88246 MiB available memory on the node where the printing process lives
------------------
     ethr =  6.36E-03,  avg # of iterations =  7.3

     negative rho (up, down):  0.000E+00 9.526E-07

     total cpu time spent up to now is      259.4 secs

     total energy              =    -511.78533748 Ry
     estimated scf accuracy    <       0.59809463 Ry

     total magnetization       =     0.00    -0.00     6.29 Bohr mag/cell
     absolute magnetization    =    10.67 Bohr mag/cell

     iteration #  3     ecut=    90.00 Ry     beta= 0.70
     Davidson diagonalization with overlap

---- Real-time Memory Report at c_bands before calling an iterative solver
           325 MiB given to the printing process from OS
             0 MiB allocation reported by mallinfo(arena+hblkhd)
         87301 MiB available memory on the node where the printing process lives
------------------
     c_bands:  2 eigenvalues not converged
     c_bands:  1 eigenvalues not converged
     c_bands:  1 eigenvalues not converged
     c_bands:  1 eigenvalues not converged
     c_bands:  1 eigenvalues not converged
     c_bands:  2 eigenvalues not converged
     c_bands:  1 eigenvalues not converged
     ethr =  8.54E-04,  avg # of iterations = 13.7

     total cpu time spent up to now is      323.8 secs

     total energy              =    -511.65575424 Ry
     estimated scf accuracy    <       3.53184572 Ry

     total magnetization       =    -0.00     0.00     6.00 Bohr mag/cell
     absolute magnetization    =     6.68 Bohr mag/cell

     iteration #  4     ecut=    90.00 Ry     beta= 0.70
     Davidson diagonalization with overlap

---- Real-time Memory Report at c_bands before calling an iterative solver
           327 MiB given to the printing process from OS
             0 MiB allocation reported by mallinfo(arena+hblkhd)
         87355 MiB available memory on the node where the printing process lives
------------------
     c_bands:  3 eigenvalues not converged
     c_bands:  2 eigenvalues not converged
     c_bands:  2 eigenvalues not converged
     c_bands:  4 eigenvalues not converged
     c_bands:  4 eigenvalues not converged
     c_bands:  4 eigenvalues not converged
     ethr =  8.54E-04,  avg # of iterations = 17.4

     total cpu time spent up to now is      400.4 secs

     total energy              =    -512.09229034 Ry
     estimated scf accuracy    <       0.05726765 Ry

     total magnetization       =    -0.00     0.00     6.06 Bohr mag/cell
     absolute magnetization    =     7.92 Bohr mag/cell

     iteration #  5     ecut=    90.00 Ry     beta= 0.70
     Davidson diagonalization with overlap

---- Real-time Memory Report at c_bands before calling an iterative solver
           329 MiB given to the printing process from OS
             0 MiB allocation reported by mallinfo(arena+hblkhd)
         86716 MiB available memory on the node where the printing process lives
------------------
     ethr =  8.18E-05,  avg # of iterations =  7.7

     total cpu time spent up to now is      458.7 secs

     total energy              =    -512.10786745 Ry
     estimated scf accuracy    <       0.00751984 Ry

     total magnetization       =    -0.00     0.00     6.04 Bohr mag/cell
     absolute magnetization    =     7.64 Bohr mag/cell

     iteration #  6     ecut=    90.00 Ry     beta= 0.70
     Davidson diagonalization with overlap

---- Real-time Memory Report at c_bands before calling an iterative solver
           331 MiB given to the printing process from OS
             0 MiB allocation reported by mallinfo(arena+hblkhd)
         86909 MiB available memory on the node where the printing process lives
------------------
     ethr =  1.07E-05,  avg # of iterations =  2.7

     total cpu time spent up to now is      502.5 secs

     total energy              =    -512.11025449 Ry
     estimated scf accuracy    <       0.00123106 Ry

     total magnetization       =    -0.00     0.00     6.04 Bohr mag/cell
     absolute magnetization    =     7.37 Bohr mag/cell

     iteration #  7     ecut=    90.00 Ry     beta= 0.70
     Davidson diagonalization with overlap

---- Real-time Memory Report at c_bands before calling an iterative solver
           333 MiB given to the printing process from OS
             0 MiB allocation reported by mallinfo(arena+hblkhd)
         86556 MiB available memory on the node where the printing process lives
------------------
     ethr =  1.76E-06,  avg # of iterations =  4.1

     total cpu time spent up to now is      554.8 secs

     total energy              =    -512.11062351 Ry
     estimated scf accuracy    <       0.00039784 Ry

     total magnetization       =     0.00    -0.00     6.03 Bohr mag/cell
     absolute magnetization    =     7.24 Bohr mag/cell

     iteration #  8     ecut=    90.00 Ry     beta= 0.70
     Davidson diagonalization with overlap

---- Real-time Memory Report at c_bands before calling an iterative solver
           336 MiB given to the printing process from OS
             0 MiB allocation reported by mallinfo(arena+hblkhd)
         86506 MiB available memory on the node where the printing process lives
------------------
     ethr =  5.68E-07,  avg # of iterations =  3.0

     total cpu time spent up to now is      605.2 secs

     total energy              =    -512.11065212 Ry
     estimated scf accuracy    <       0.00068551 Ry

     total magnetization       =    -0.00    -0.00     6.03 Bohr mag/cell
     absolute magnetization    =     7.18 Bohr mag/cell

     iteration #  9     ecut=    90.00 Ry     beta= 0.70
     Davidson diagonalization with overlap

---- Real-time Memory Report at c_bands before calling an iterative solver
           338 MiB given to the printing process from OS
             0 MiB allocation reported by mallinfo(arena+hblkhd)
         86451 MiB available memory on the node where the printing process lives
------------------
     ethr =  5.68E-07,  avg # of iterations =  2.0

     total cpu time spent up to now is      648.7 secs

     total energy              =    -512.11077470 Ry
     estimated scf accuracy    <       0.00002517 Ry

     total magnetization       =    -0.00    -0.00     6.03 Bohr mag/cell
     absolute magnetization    =     7.16 Bohr mag/cell

     iteration # 10     ecut=    90.00 Ry     beta= 0.70
     Davidson diagonalization with overlap

---- Real-time Memory Report at c_bands before calling an iterative solver
           340 MiB given to the printing process from OS
             0 MiB allocation reported by mallinfo(arena+hblkhd)
         87070 MiB available memory on the node where the printing process lives
------------------
     ethr =  3.60E-08,  avg # of iterations =  4.0

     total cpu time spent up to now is      686.8 secs

     total energy              =    -512.11078054 Ry
     estimated scf accuracy    <       0.00000261 Ry

     total magnetization       =    -0.00     0.00     6.03 Bohr mag/cell
     absolute magnetization    =     7.17 Bohr mag/cell

     iteration # 11     ecut=    90.00 Ry     beta= 0.70
     Davidson diagonalization with overlap

---- Real-time Memory Report at c_bands before calling an iterative solver
           342 MiB given to the printing process from OS
             0 MiB allocation reported by mallinfo(arena+hblkhd)
         85777 MiB available memory on the node where the printing process lives
------------------
     ethr =  3.74E-09,  avg # of iterations =  3.2

     total cpu time spent up to now is      730.6 secs

     total energy              =    -512.11078117 Ry
     estimated scf accuracy    <       0.00000005 Ry

     total magnetization       =    -0.00    -0.00     6.03 Bohr mag/cell
     absolute magnetization    =     7.16 Bohr mag/cell

     iteration # 12     ecut=    90.00 Ry     beta= 0.70
     Davidson diagonalization with overlap

---- Real-time Memory Report at c_bands before calling an iterative solver
           342 MiB given to the printing process from OS
             0 MiB allocation reported by mallinfo(arena+hblkhd)
         85774 MiB available memory on the node where the printing process lives
------------------
     ethr =  7.51E-11,  avg # of iterations =  5.9

     total cpu time spent up to now is      796.0 secs

     total energy              =    -512.11078119 Ry
     estimated scf accuracy    <       0.00000006 Ry

     total magnetization       =    -0.00     0.00     6.03 Bohr mag/cell
     absolute magnetization    =     7.16 Bohr mag/cell

     iteration # 13     ecut=    90.00 Ry     beta= 0.70
     Davidson diagonalization with overlap

---- Real-time Memory Report at c_bands before calling an iterative solver
           342 MiB given to the printing process from OS
             0 MiB allocation reported by mallinfo(arena+hblkhd)
         85504 MiB available memory on the node where the printing process lives
------------------
     ethr =  7.51E-11,  avg # of iterations =  2.0

     total cpu time spent up to now is      835.3 secs

     total energy              =    -512.11078120 Ry
     estimated scf accuracy    <          2.4E-09 Ry

     total magnetization       =     0.00     0.00     6.03 Bohr mag/cell
     absolute magnetization    =     7.16 Bohr mag/cell

     iteration # 14     ecut=    90.00 Ry     beta= 0.70
     Davidson diagonalization with overlap

---- Real-time Memory Report at c_bands before calling an iterative solver
           342 MiB given to the printing process from OS
             0 MiB allocation reported by mallinfo(arena+hblkhd)
         85422 MiB available memory on the node where the printing process lives
------------------
     ethr =  3.38E-12,  avg # of iterations =  4.0

     total cpu time spent up to now is      889.4 secs

     total energy              =    -512.11078120 Ry
     estimated scf accuracy    <          1.1E-09 Ry

     total magnetization       =     0.00    -0.00     6.03 Bohr mag/cell
     absolute magnetization    =     7.16 Bohr mag/cell

     iteration # 15     ecut=    90.00 Ry     beta= 0.70
     Davidson diagonalization with overlap

---- Real-time Memory Report at c_bands before calling an iterative solver
           342 MiB given to the printing process from OS
             0 MiB allocation reported by mallinfo(arena+hblkhd)
         85382 MiB available memory on the node where the printing process lives
------------------
     ethr =  1.59E-12,  avg # of iterations =  2.0

     total cpu time spent up to now is      935.2 secs

     total energy              =    -512.11078120 Ry
     estimated scf accuracy    <          6.0E-11 Ry

     total magnetization       =     0.00     0.00     6.03 Bohr mag/cell
     absolute magnetization    =     7.16 Bohr mag/cell

     iteration # 16     ecut=    90.00 Ry     beta= 0.70
     Davidson diagonalization with overlap

---- Real-time Memory Report at c_bands before calling an iterative solver
           342 MiB given to the printing process from OS
             0 MiB allocation reported by mallinfo(arena+hblkhd)
         85245 MiB available memory on the node where the printing process lives
------------------
     ethr =  1.00E-13,  avg # of iterations =  4.0

     total cpu time spent up to now is      983.4 secs

     total energy              =    -512.11078120 Ry
     estimated scf accuracy    <          5.5E-12 Ry

     total magnetization       =    -0.00     0.00     6.03 Bohr mag/cell
     absolute magnetization    =     7.16 Bohr mag/cell

     iteration # 17     ecut=    90.00 Ry     beta= 0.70
     Davidson diagonalization with overlap

---- Real-time Memory Report at c_bands before calling an iterative solver
           342 MiB given to the printing process from OS
             0 MiB allocation reported by mallinfo(arena+hblkhd)
         85130 MiB available memory on the node where the printing process lives
------------------
     ethr =  1.00E-13,  avg # of iterations =  1.0

     total cpu time spent up to now is     1017.6 secs

     total energy              =    -512.11078120 Ry
     estimated scf accuracy    <          5.0E-13 Ry

     total magnetization       =     0.00     0.00     6.03 Bohr mag/cell
     absolute magnetization    =     7.16 Bohr mag/cell

     iteration # 18     ecut=    90.00 Ry     beta= 0.70
     Davidson diagonalization with overlap

---- Real-time Memory Report at c_bands before calling an iterative solver
           342 MiB given to the printing process from OS
             0 MiB allocation reported by mallinfo(arena+hblkhd)
         85088 MiB available memory on the node where the printing process lives
------------------
     ethr =  1.00E-13,  avg # of iterations =  1.0

 ==============================================================================
     atom number    1 relative position :    0.0000   0.0000   0.4846
     charge :    12.442885  (integrated on a sphere of radius 0.164)
     magnetization :         -0.000000   -0.000000    2.945373
     magnetization/charge:   -0.000000   -0.000000    0.236711
     polar coord.: r, theta, phi [deg] :     2.945373    0.000000  360.000000

 ==============================================================================

 ==============================================================================
     atom number    2 relative position :    0.0000   0.5774   0.4846
     charge :    12.442885  (integrated on a sphere of radius 0.164)
     magnetization :         -0.000000    0.000000    2.945373
     magnetization/charge:   -0.000000    0.000000    0.236711
     polar coord.: r, theta, phi [deg] :     2.945373    0.000000  360.000000

 ==============================================================================

 ==============================================================================
     atom number    3 relative position :   -0.1753   0.8510   0.7124
     charge :     4.119526  (integrated on a sphere of radius 0.164)
     magnetization :         -0.000546   -0.000945   -0.050520
     magnetization/charge:   -0.000132   -0.000229   -0.012264
     polar coord.: r, theta, phi [deg] :     0.050532  178.762592 -120.000000

 ==============================================================================

 ==============================================================================
     atom number    4 relative position :    0.3247   0.5923   0.7124
     charge :     4.119526  (integrated on a sphere of radius 0.164)
     magnetization :         -0.000546    0.000945   -0.050520
     magnetization/charge:   -0.000132    0.000229   -0.012264
     polar coord.: r, theta, phi [deg] :     0.050532  178.762592  120.000000

 ==============================================================================

 ==============================================================================
     atom number    5 relative position :   -0.1494   0.2887   0.7124
     charge :     4.119526  (integrated on a sphere of radius 0.164)
     magnetization :          0.001091   -0.000000   -0.050520
     magnetization/charge:    0.000265   -0.000000   -0.012264
     polar coord.: r, theta, phi [deg] :     0.050532  178.762592    0.000000

 ==============================================================================

 ==============================================================================
     atom number    6 relative position :   -0.3247   0.5923   0.2568
     charge :     4.119712  (integrated on a sphere of radius 0.164)
     magnetization :         -0.000546   -0.000946   -0.050521
     magnetization/charge:   -0.000133   -0.000230   -0.012263
     polar coord.: r, theta, phi [deg] :     0.050532  178.761528 -120.000000

 ==============================================================================

 ==============================================================================
     atom number    7 relative position :    0.1753   0.8510   0.2568
     charge :     4.119712  (integrated on a sphere of radius 0.164)
     magnetization :         -0.000546    0.000946   -0.050521
     magnetization/charge:   -0.000133    0.000230   -0.012263
     polar coord.: r, theta, phi [deg] :     0.050532  178.761528  120.000000

 ==============================================================================

 ==============================================================================
     atom number    8 relative position :    0.1494   0.2887   0.2568
     charge :     4.119712  (integrated on a sphere of radius 0.164)
     magnetization :          0.001092    0.000000   -0.050521
     magnetization/charge:    0.000265    0.000000   -0.012263
     polar coord.: r, theta, phi [deg] :     0.050532  178.761528    0.000000

 ==============================================================================

     total cpu time spent up to now is     1052.6 secs

     End of self-consistent calculation

          k = 0.0000 0.0000 0.0000 ( 52593 PWs)   bands (ev):

   -77.3267 -77.3265 -74.3850 -74.3847 -49.4764 -49.4737 -49.1588 -49.1579
   -48.7151 -48.7121 -46.3718 -46.3683 -46.0773 -46.0760 -45.7718 -45.7678
   -18.4844 -18.4665 -17.7601 -17.7414 -17.4529 -17.4507 -17.4381 -17.4359
   -17.3591 -17.3584 -17.3437 -17.3430 -10.1423  -9.8994  -9.6505  -9.4540
    -9.3031  -9.2823  -9.1753  -9.0803  -9.0418  -9.0031  -8.7993  -8.6608
    -8.5799  -8.5130  -8.2563  -8.1336  -8.1161  -7.8897  -7.8671  -7.7364
    -7.6356  -7.5980  -7.5245  -7.3059  -7.2703  -7.1465  -6.9901  -6.9159
    -6.6627  -6.6016  -6.3935  -6.3934  -6.1421  -6.0683  -6.0567  -6.0379
    -5.9704  -5.9628  -5.8397  -5.6670  -5.3420  -5.2572  -4.4201  -4.3550
    -4.1427  -3.7717  -3.7373  -3.7369  -3.7110  -3.6449  -3.4143  -3.3616
    -2.8680  -2.8364  -2.6822  -2.4703

     occupation numbers 
     1.0000   1.0000   1.0000   1.0000   1.0000   1.0000   1.0000   1.0000
     1.0000   1.0000   1.0000   1.0000   1.0000   1.0000   1.0000   1.0000
     1.0000   1.0000   1.0000   1.0000   1.0000   1.0000   1.0000   1.0000
     1.0000   1.0000   1.0000   1.0000   1.0000   1.0000   1.0000   1.0000
     1.0000   1.0000   1.0000   1.0000   1.0000   1.0000   1.0000   1.0000
     1.0000   1.0000   1.0000   1.0000   1.0000   1.0000   1.0000   1.0000
     1.0000   1.0000   1.0000   1.0000   1.0000   1.0000   1.0000   1.0000
     1.0000   1.0000   1.0000   1.0000   1.0000   1.0000   1.0000   1.0000
     1.0000   1.0000   1.0000   1.0000   1.0000   1.0000   0.0000   0.0000
     0.0000   0.0000   0.0000   0.0000   0.0000   0.0000   0.0000   0.0000
     0.0000   0.0000   0.0000   0.0000

          k = 0.0000 0.1443 0.0000 ( 52628 PWs)   bands (ev):

   -77.3267 -77.3265 -74.3850 -74.3847 -49.4763 -49.4738 -49.1587 -49.1579
   -48.7150 -48.7122 -46.3717 -46.3685 -46.0772 -46.0761 -45.7716 -45.7679
   -18.4513 -18.4341 -17.7413 -17.7227 -17.4966 -17.4834 -17.4706 -17.4556
   -17.3621 -17.3610 -17.3472 -17.3458 -10.1401  -9.9053  -9.6465  -9.4507
    -9.2877  -9.2721  -9.1480  -9.1304  -9.0848  -9.0284  -8.7130  -8.6978
    -8.4934  -8.3480  -8.2421  -8.1411  -8.0271  -7.8452  -7.7900  -7.6898
    -7.6287  -7.5783  -7.5546  -7.3032  -7.2376  -7.1499  -7.0029  -6.9439
    -6.7347  -6.6131  -6.4362  -6.3619  -6.2384  -6.1513  -6.1027  -6.0043
    -5.9584  -5.9520  -5.9002  -5.6533  -5.5230  -5.3303  -4.4150  -4.3396
    -4.1831  -3.8703  -3.7876  -3.6833  -3.6551  -3.5836  -3.4315  -3.3777
    -2.8793  -2.8305  -2.7127  -2.5441

     occupation numbers 
     1.0000   1.0000   1.0000   1.0000   1.0000   1.0000   1.0000   1.0000
     1.0000   1.0000   1.0000   1.0000   1.0000   1.0000   1.0000   1.0000
     1.0000   1.0000   1.0000   1.0000   1.0000   1.0000   1.0000   1.0000
     1.0000   1.0000   1.0000   1.0000   1.0000   1.0000   1.0000   1.0000
     1.0000   1.0000   1.0000   1.0000   1.0000   1.0000   1.0000   1.0000
     1.0000   1.0000   1.0000   1.0000   1.0000   1.0000   1.0000   1.0000
     1.0000   1.0000   1.0000   1.0000   1.0000   1.0000   1.0000   1.0000
     1.0000   1.0000   1.0000   1.0000   1.0000   1.0000   1.0000   1.0000
     1.0000   1.0000   1.0000   1.0000   1.0000   1.0000   0.0000   0.0000
     0.0000   0.0000   0.0000   0.0000   0.0000   0.0000   0.0000   0.0000
     0.0000   0.0000   0.0000   0.0000

          k = 0.0000 0.2887 0.0000 ( 52560 PWs)   bands (ev):

   -77.3267 -77.3265 -74.3850 -74.3847 -49.4761 -49.4741 -49.1587 -49.1580
   -48.7147 -48.7124 -46.3714 -46.3688 -46.0771 -46.0762 -45.7713 -45.7683
   -18.3563 -18.3411 -17.6883 -17.6700 -17.6140 -17.6048 -17.5080 -17.4926
   -17.3827 -17.3755 -17.3673 -17.3615 -10.1248  -9.9039  -9.6267  -9.4301
    -9.2844  -9.2564  -9.1754  -9.1445  -9.0828  -8.9816  -8.6027  -8.5303
    -8.3864  -8.3084  -8.1738  -7.9999  -7.9863  -7.8281  -7.7160  -7.6104
    -7.5757  -7.5436  -7.3822  -7.2949  -7.2278  -7.1782  -7.0716  -6.9772
    -6.8225  -6.7173  -6.5473  -6.4389  -6.3309  -6.2220  -6.1914  -6.1018
    -5.9813  -5.9187  -5.8902  -5.7602  -5.6735  -5.4218  -4.4014  -4.2969
    -4.2611  -4.0405  -3.8193  -3.7045  -3.5941  -3.4727  -3.4497  -3.3872
    -2.9017  -2.8377  -2.7417  -2.6324

     occupation numbers 
     1.0000   1.0000   1.0000   1.0000   1.0000   1.0000   1.0000   1.0000
     1.0000   1.0000   1.0000   1.0000   1.0000   1.0000   1.0000   1.0000
     1.0000   1.0000   1.0000   1.0000   1.0000   1.0000   1.0000   1.0000
     1.0000   1.0000   1.0000   1.0000   1.0000   1.0000   1.0000   1.0000
     1.0000   1.0000   1.0000   1.0000   1.0000   1.0000   1.0000   1.0000
     1.0000   1.0000   1.0000   1.0000   1.0000   1.0000   1.0000   1.0000
     1.0000   1.0000   1.0000   1.0000   1.0000   1.0000   1.0000   1.0000
     1.0000   1.0000   1.0000   1.0000   1.0000   1.0000   1.0000   1.0000
     1.0000   1.0000   1.0000   1.0000   1.0000   1.0000   0.0000   0.0000
     0.0000   0.0000   0.0000   0.0000   0.0000   0.0000   0.0000   0.0000
     0.0000   0.0000   0.0000   0.0000

          k = 0.0000 0.4330 0.0000 ( 52578 PWs)   bands (ev):

   -77.3267 -77.3266 -74.3849 -74.3848 -49.4757 -49.4744 -49.1585 -49.1581
   -48.7143 -48.7128 -46.3710 -46.3692 -46.0770 -46.0764 -45.7708 -45.7688
   -18.2163 -18.2040 -17.7732 -17.7689 -17.6124 -17.5945 -17.5393 -17.5236
   -17.4335 -17.4178 -17.3913 -17.3782 -10.1200  -9.9086  -9.5505  -9.3631
    -9.3113  -9.2634  -9.1409  -9.0162  -8.9797  -8.9086  -8.5351  -8.4478
    -8.3510  -8.2876  -8.1342  -8.0965  -7.9698  -7.7574  -7.7231  -7.6615
    -7.6105  -7.4857  -7.4511  -7.3482  -7.2579  -7.0066  -6.9954  -6.8597
    -6.8285  -6.7947  -6.6940  -6.4822  -6.3744  -6.3044  -6.2825  -6.1159
    -5.9802  -5.9417  -5.8729  -5.7911  -5.7239  -5.4757  -4.3690  -4.2853
    -4.2112  -4.1857  -3.8615  -3.8305  -3.5692  -3.4546  -3.4395  -3.3339
    -2.9066  -2.8216  -2.7211  -2.6687

     occupation numbers 
     1.0000   1.0000   1.0000   1.0000   1.0000   1.0000   1.0000   1.0000
     1.0000   1.0000   1.0000   1.0000   1.0000   1.0000   1.0000   1.0000
     1.0000   1.0000   1.0000   1.0000   1.0000   1.0000   1.0000   1.0000
     1.0000   1.0000   1.0000   1.0000   1.0000   1.0000   1.0000   1.0000
     1.0000   1.0000   1.0000   1.0000   1.0000   1.0000   1.0000   1.0000
     1.0000   1.0000   1.0000   1.0000   1.0000   1.0000   1.0000   1.0000
     1.0000   1.0000   1.0000   1.0000   1.0000   1.0000   1.0000   1.0000
     1.0000   1.0000   1.0000   1.0000   1.0000   1.0000   1.0000   1.0000
     1.0000   1.0000   1.0000   1.0000   1.0000   1.0000   0.0000   0.0000
     0.0000   0.0000   0.0000   0.0000   0.0000   0.0000   0.0000   0.0000
     0.0000   0.0000   0.0000   0.0000

          k = 0.0000-0.5774 0.0000 ( 52578 PWs)   bands (ev):

   -77.3267 -77.3266 -74.3849 -74.3848 -49.4755 -49.4746 -49.1585 -49.1582
   -48.7141 -48.7131 -46.3707 -46.3695 -46.0769 -46.0765 -45.7704 -45.7691
   -18.1094 -18.0985 -17.8877 -17.8854 -17.5513 -17.5510 -17.5354 -17.5329
   -17.4856 -17.4701 -17.3980 -17.3852 -10.1251  -9.9164  -9.4942  -9.3472
    -9.2959  -9.2748  -9.0254  -8.9638  -8.8987  -8.8623  -8.5394  -8.4469
    -8.4178  -8.2143  -8.2109  -8.0245  -8.0119  -7.9360  -7.8366  -7.6766
    -7.6300  -7.4854  -7.3925  -7.3127  -7.3052  -7.0046  -6.8953  -6.8191
    -6.8181  -6.6638  -6.6634  -6.4887  -6.4338  -6.3513  -6.2812  -6.2228
    -5.9734  -5.9591  -5.8420  -5.7486  -5.7358  -5.5098  -4.3372  -4.2839
    -4.2736  -4.1388  -3.9053  -3.8835  -3.5776  -3.4540  -3.4289  -3.3115
    -2.9221  -2.7938  -2.6976  -2.6604

     occupation numbers 
     1.0000   1.0000   1.0000   1.0000   1.0000   1.0000   1.0000   1.0000
     1.0000   1.0000   1.0000   1.0000   1.0000   1.0000   1.0000   1.0000
     1.0000   1.0000   1.0000   1.0000   1.0000   1.0000   1.0000   1.0000
     1.0000   1.0000   1.0000   1.0000   1.0000   1.0000   1.0000   1.0000
     1.0000   1.0000   1.0000   1.0000   1.0000   1.0000   1.0000   1.0000
     1.0000   1.0000   1.0000   1.0000   1.0000   1.0000   1.0000   1.0000
     1.0000   1.0000   1.0000   1.0000   1.0000   1.0000   1.0000   1.0000
     1.0000   1.0000   1.0000   1.0000   1.0000   1.0000   1.0000   1.0000
     1.0000   1.0000   1.0000   1.0000   1.0000   1.0000   0.0000   0.0000
     0.0000   0.0000   0.0000   0.0000   0.0000   0.0000   0.0000   0.0000
     0.0000   0.0000   0.0000   0.0000

          k = 0.1250 0.2165 0.0000 ( 52635 PWs)   bands (ev):

   -77.3267 -77.3265 -74.3850 -74.3847 -49.4761 -49.4740 -49.1587 -49.1580
   -48.7148 -48.7123 -46.3715 -46.3687 -46.0772 -46.0762 -45.7714 -45.7682
   -18.3871 -18.3713 -17.7053 -17.6869 -17.5687 -17.5582 -17.5084 -17.4932
   -17.3750 -17.3681 -17.3598 -17.3536 -10.1198  -9.8948  -9.6451  -9.4493
    -9.2969  -9.2471  -9.1774  -9.1319  -9.1124  -9.0032  -8.6445  -8.5650
    -8.3754  -8.3526  -8.1644  -8.0562  -7.9528  -7.8496  -7.7389  -7.6162
    -7.6117  -7.5556  -7.4139  -7.2933  -7.2478  -7.1819  -7.0534  -6.9603
    -6.8139  -6.6457  -6.5028  -6.4149  -6.3317  -6.2309  -6.1275  -6.0917
    -5.9736  -5.9460  -5.8739  -5.7222  -5.6607  -5.3976  -4.4141  -4.3090
    -4.2577  -3.9747  -3.7774  -3.7346  -3.5779  -3.5152  -3.4417  -3.3915
    -2.9146  -2.8120  -2.7441  -2.6071

     occupation numbers 
     1.0000   1.0000   1.0000   1.0000   1.0000   1.0000   1.0000   1.0000
     1.0000   1.0000   1.0000   1.0000   1.0000   1.0000   1.0000   1.0000
     1.0000   1.0000   1.0000   1.0000   1.0000   1.0000   1.0000   1.0000
     1.0000   1.0000   1.0000   1.0000   1.0000   1.0000   1.0000   1.0000
     1.0000   1.0000   1.0000   1.0000   1.0000   1.0000   1.0000   1.0000
     1.0000   1.0000   1.0000   1.0000   1.0000   1.0000   1.0000   1.0000
     1.0000   1.0000   1.0000   1.0000   1.0000   1.0000   1.0000   1.0000
     1.0000   1.0000   1.0000   1.0000   1.0000   1.0000   1.0000   1.0000
     1.0000   1.0000   1.0000   1.0000   1.0000   1.0000   0.0000   0.0000
     0.0000   0.0000   0.0000   0.0000   0.0000   0.0000   0.0000   0.0000
     0.0000   0.0000   0.0000   0.0000

          k = 0.1250 0.3608 0.0000 ( 52572 PWs)   bands (ev):

   -77.3267 -77.3266 -74.3849 -74.3848 -49.4758 -49.4743 -49.1586 -49.1581
   -48.7145 -48.7127 -46.3711 -46.3691 -46.0770 -46.0763 -45.7709 -45.7686
   -18.2681 -18.2549 -17.6975 -17.6918 -17.6407 -17.6227 -17.5552 -17.5401
   -17.4085 -17.3930 -17.3842 -17.3703 -10.0712  -9.8567  -9.6214  -9.4241
    -9.2934  -9.2525  -9.1715  -9.1027  -9.0525  -8.9395  -8.5184  -8.5027
    -8.3960  -8.2420  -8.1353  -8.0679  -7.9322  -7.7848  -7.7125  -7.6801
    -7.5897  -7.4742  -7.3741  -7.3297  -7.2019  -7.1018  -7.0512  -6.9644
    -6.8363  -6.7239  -6.5780  -6.5036  -6.3836  -6.3075  -6.2438  -6.0952
    -5.9702  -5.9393  -5.8781  -5.8100  -5.7054  -5.4516  -4.3969  -4.3089
    -4.2424  -4.0730  -3.8217  -3.7786  -3.5845  -3.5036  -3.4036  -3.3642
    -2.9167  -2.7883  -2.7406  -2.6538

     occupation numbers 
     1.0000   1.0000   1.0000   1.0000   1.0000   1.0000   1.0000   1.0000
     1.0000   1.0000   1.0000   1.0000   1.0000   1.0000   1.0000   1.0000
     1.0000   1.0000   1.0000   1.0000   1.0000   1.0000   1.0000   1.0000
     1.0000   1.0000   1.0000   1.0000   1.0000   1.0000   1.0000   1.0000
     1.0000   1.0000   1.0000   1.0000   1.0000   1.0000   1.0000   1.0000
     1.0000   1.0000   1.0000   1.0000   1.0000   1.0000   1.0000   1.0000
     1.0000   1.0000   1.0000   1.0000   1.0000   1.0000   1.0000   1.0000
     1.0000   1.0000   1.0000   1.0000   1.0000   1.0000   1.0000   1.0000
     1.0000   1.0000   1.0000   1.0000   1.0000   1.0000   0.0000   0.0000
     0.0000   0.0000   0.0000   0.0000   0.0000   0.0000   0.0000   0.0000
     0.0000   0.0000   0.0000   0.0000

          k = 0.1250 0.5052 0.0000 ( 52542 PWs)   bands (ev):

   -77.3267 -77.3266 -74.3849 -74.3848 -49.4755 -49.4746 -49.1585 -49.1582
   -48.7141 -48.7131 -46.3707 -46.3695 -46.0769 -46.0765 -45.7704 -45.7691
   -18.1245 -18.1140 -17.8494 -17.8477 -17.5828 -17.5677 -17.5644 -17.5468
   -17.4643 -17.4484 -17.3977 -17.3842 -10.0487  -9.8402  -9.5386  -9.3522
    -9.3001  -9.2445  -9.1086  -8.9819  -8.9468  -8.9137  -8.5643  -8.4787
    -8.4305  -8.3324  -8.1823  -8.1219  -7.9363  -7.8616  -7.8100  -7.6354
    -7.5966  -7.4672  -7.4132  -7.2671  -7.2141  -7.0042  -6.9201  -6.8606
    -6.7873  -6.7034  -6.6405  -6.4835  -6.4654  -6.3757  -6.2681  -6.1797
    -5.9635  -5.9400  -5.8800  -5.7480  -5.7263  -5.5044  -4.3305  -4.3108
    -4.2097  -4.1194  -3.8789  -3.8591  -3.5768  -3.5351  -3.3826  -3.3249
    -2.8764  -2.7833  -2.6971  -2.6654

     occupation numbers 
     1.0000   1.0000   1.0000   1.0000   1.0000   1.0000   1.0000   1.0000
     1.0000   1.0000   1.0000   1.0000   1.0000   1.0000   1.0000   1.0000
     1.0000   1.0000   1.0000   1.0000   1.0000   1.0000   1.0000   1.0000
     1.0000   1.0000   1.0000   1.0000   1.0000   1.0000   1.0000   1.0000
     1.0000   1.0000   1.0000   1.0000   1.0000   1.0000   1.0000   1.0000
     1.0000   1.0000   1.0000   1.0000   1.0000   1.0000   1.0000   1.0000
     1.0000   1.0000   1.0000   1.0000   1.0000   1.0000   1.0000   1.0000
     1.0000   1.0000   1.0000   1.0000   1.0000   1.0000   1.0000   1.0000
     1.0000   1.0000   1.0000   1.0000   1.0000   1.0000   0.0000   0.0000
     0.0000   0.0000   0.0000   0.0000   0.0000   0.0000   0.0000   0.0000
     0.0000   0.0000   0.0000   0.0000

          k = 0.2500 0.4330 0.0000 ( 52526 PWs)   bands (ev):

   -77.3267 -77.3266 -74.3849 -74.3848 -49.4755 -49.4746 -49.1585 -49.1582
   -48.7141 -48.7131 -46.3707 -46.3695 -46.0769 -46.0765 -45.7704 -45.7691
   -18.1370 -18.1268 -17.8058 -17.8050 -17.6213 -17.6061 -17.5741 -17.5565
   -17.4435 -17.4274 -17.4020 -17.3880  -9.9327  -9.7240  -9.6307  -9.4327
    -9.2717  -9.2289  -9.1236  -9.0882  -8.9772  -8.9447  -8.5900  -8.4891
    -8.4687  -8.3522  -8.2064  -8.1129  -7.9457  -7.8307  -7.7579  -7.6527
    -7.6008  -7.4829  -7.2664  -7.2175  -7.1593  -7.0873  -6.9382  -6.8708
    -6.8030  -6.6727  -6.6392  -6.5153  -6.4520  -6.3649  -6.2255  -6.1660
    -6.0360  -5.9415  -5.8549  -5.7532  -5.7097  -5.4983  -4.3315  -4.3273
    -4.1895  -4.0601  -3.8703  -3.7838  -3.6518  -3.5428  -3.3624  -3.3428
    -2.8490  -2.7530  -2.6934  -2.6696

     occupation numbers 
     1.0000   1.0000   1.0000   1.0000   1.0000   1.0000   1.0000   1.0000
     1.0000   1.0000   1.0000   1.0000   1.0000   1.0000   1.0000   1.0000
     1.0000   1.0000   1.0000   1.0000   1.0000   1.0000   1.0000   1.0000
     1.0000   1.0000   1.0000   1.0000   1.0000   1.0000   1.0000   1.0000
     1.0000   1.0000   1.0000   1.0000   1.0000   1.0000   1.0000   1.0000
     1.0000   1.0000   1.0000   1.0000   1.0000   1.0000   1.0000   1.0000
     1.0000   1.0000   1.0000   1.0000   1.0000   1.0000   1.0000   1.0000
     1.0000   1.0000   1.0000   1.0000   1.0000   1.0000   1.0000   1.0000
     1.0000   1.0000   1.0000   1.0000   1.0000   1.0000   0.0000   0.0000
     0.0000   0.0000   0.0000   0.0000   0.0000   0.0000   0.0000   0.0000
     0.0000   0.0000   0.0000   0.0000

          k = 0.2500 0.5774 0.0000 ( 52520 PWs)   bands (ev):

   -77.3266 -77.3266 -74.3849 -74.3848 -49.4753 -49.4749 -49.1584 -49.1583
   -48.7138 -48.7134 -46.3703 -46.3699 -46.0767 -46.0766 -45.7701 -45.7695
   -18.0244 -18.0165 -17.9102 -17.9075 -17.6484 -17.6332 -17.5191 -17.5016
   -17.4825 -17.4661 -17.4129 -17.3990  -9.8513  -9.6458  -9.6107  -9.4159
    -9.2655  -9.1866  -9.0927  -9.0647  -9.0037  -8.9509  -8.6492  -8.5697
    -8.4649  -8.4067  -8.3075  -8.1769  -8.0912  -7.8650  -7.6789  -7.5714
    -7.5101  -7.4283  -7.3425  -7.1805  -7.0830  -6.9955  -6.9504  -6.8446
    -6.8101  -6.7221  -6.5645  -6.5002  -6.4583  -6.4073  -6.2397  -6.2015
    -6.0387  -5.9334  -5.8488  -5.7609  -5.6398  -5.5469  -4.3335  -4.2656
    -4.1939  -4.0296  -3.8620  -3.8310  -3.6735  -3.5633  -3.3520  -3.3316
    -2.7789  -2.7634  -2.6959  -2.6337

     occupation numbers 
     1.0000   1.0000   1.0000   1.0000   1.0000   1.0000   1.0000   1.0000
     1.0000   1.0000   1.0000   1.0000   1.0000   1.0000   1.0000   1.0000
     1.0000   1.0000   1.0000   1.0000   1.0000   1.0000   1.0000   1.0000
     1.0000   1.0000   1.0000   1.0000   1.0000   1.0000   1.0000   1.0000
     1.0000   1.0000   1.0000   1.0000   1.0000   1.0000   1.0000   1.0000
     1.0000   1.0000   1.0000   1.0000   1.0000   1.0000   1.0000   1.0000
     1.0000   1.0000   1.0000   1.0000   1.0000   1.0000   1.0000   1.0000
     1.0000   1.0000   1.0000   1.0000   1.0000   1.0000   1.0000   1.0000
     1.0000   1.0000   1.0000   1.0000   1.0000   1.0000   0.0000   0.0000
     0.0000   0.0000   0.0000   0.0000   0.0000   0.0000   0.0000   0.0000
     0.0000   0.0000   0.0000   0.0000

          k = 0.0000-0.1443 0.0000 ( 52628 PWs)   bands (ev):

   -77.3267 -77.3265 -74.3850 -74.3847 -49.4763 -49.4738 -49.1587 -49.1579
   -48.7150 -48.7122 -46.3717 -46.3685 -46.0772 -46.0761 -45.7716 -45.7679
   -18.4513 -18.4341 -17.7413 -17.7227 -17.4966 -17.4834 -17.4706 -17.4556
   -17.3621 -17.3610 -17.3472 -17.3458 -10.1401  -9.9053  -9.6465  -9.4507
    -9.2877  -9.2721  -9.1480  -9.1304  -9.0848  -9.0284  -8.7130  -8.6978
    -8.4934  -8.3480  -8.2421  -8.1411  -8.0271  -7.8452  -7.7900  -7.6898
    -7.6287  -7.5783  -7.5546  -7.3032  -7.2376  -7.1499  -7.0029  -6.9439
    -6.7347  -6.6131  -6.4362  -6.3619  -6.2384  -6.1513  -6.1027  -6.0043
    -5.9584  -5.9520  -5.9002  -5.6533  -5.5230  -5.3303  -4.4150  -4.3396
    -4.1831  -3.8703  -3.7876  -3.6833  -3.6551  -3.5836  -3.4315  -3.3777
    -2.8793  -2.8305  -2.7127  -2.5441

     occupation numbers 
     1.0000   1.0000   1.0000   1.0000   1.0000   1.0000   1.0000   1.0000
     1.0000   1.0000   1.0000   1.0000   1.0000   1.0000   1.0000   1.0000
     1.0000   1.0000   1.0000   1.0000   1.0000   1.0000   1.0000   1.0000
     1.0000   1.0000   1.0000   1.0000   1.0000   1.0000   1.0000   1.0000
     1.0000   1.0000   1.0000   1.0000   1.0000   1.0000   1.0000   1.0000
     1.0000   1.0000   1.0000   1.0000   1.0000   1.0000   1.0000   1.0000
     1.0000   1.0000   1.0000   1.0000   1.0000   1.0000   1.0000   1.0000
     1.0000   1.0000   1.0000   1.0000   1.0000   1.0000   1.0000   1.0000
     1.0000   1.0000   1.0000   1.0000   1.0000   1.0000   0.0000   0.0000
     0.0000   0.0000   0.0000   0.0000   0.0000   0.0000   0.0000   0.0000
     0.0000   0.0000   0.0000   0.0000

          k = 0.0000-0.2887 0.0000 ( 52560 PWs)   bands (ev):

   -77.3267 -77.3265 -74.3850 -74.3847 -49.4761 -49.4741 -49.1587 -49.1580
   -48.7147 -48.7124 -46.3714 -46.3688 -46.0771 -46.0762 -45.7713 -45.7683
   -18.3563 -18.3411 -17.6883 -17.6700 -17.6140 -17.6048 -17.5080 -17.4926
   -17.3827 -17.3755 -17.3673 -17.3615 -10.1248  -9.9039  -9.6267  -9.4301
    -9.2844  -9.2564  -9.1754  -9.1445  -9.0828  -8.9816  -8.6027  -8.5303
    -8.3864  -8.3084  -8.1738  -7.9999  -7.9863  -7.8281  -7.7160  -7.6104
    -7.5757  -7.5436  -7.3822  -7.2949  -7.2278  -7.1782  -7.0716  -6.9772
    -6.8225  -6.7173  -6.5473  -6.4389  -6.3309  -6.2220  -6.1914  -6.1018
    -5.9813  -5.9187  -5.8902  -5.7602  -5.6735  -5.4218  -4.4014  -4.2969
    -4.2611  -4.0405  -3.8193  -3.7045  -3.5941  -3.4727  -3.4497  -3.3872
    -2.9017  -2.8377  -2.7417  -2.6324

     occupation numbers 
     1.0000   1.0000   1.0000   1.0000   1.0000   1.0000   1.0000   1.0000
     1.0000   1.0000   1.0000   1.0000   1.0000   1.0000   1.0000   1.0000
     1.0000   1.0000   1.0000   1.0000   1.0000   1.0000   1.0000   1.0000
     1.0000   1.0000   1.0000   1.0000   1.0000   1.0000   1.0000   1.0000
     1.0000   1.0000   1.0000   1.0000   1.0000   1.0000   1.0000   1.0000
     1.0000   1.0000   1.0000   1.0000   1.0000   1.0000   1.0000   1.0000
     1.0000   1.0000   1.0000   1.0000   1.0000   1.0000   1.0000   1.0000
     1.0000   1.0000   1.0000   1.0000   1.0000   1.0000   1.0000   1.0000
     1.0000   1.0000   1.0000   1.0000   1.0000   1.0000   0.0000   0.0000
     0.0000   0.0000   0.0000   0.0000   0.0000   0.0000   0.0000   0.0000
     0.0000   0.0000   0.0000   0.0000

          k = 0.0000-0.4330 0.0000 ( 52578 PWs)   bands (ev):

   -77.3267 -77.3266 -74.3849 -74.3848 -49.4757 -49.4744 -49.1585 -49.1581
   -48.7143 -48.7128 -46.3710 -46.3692 -46.0770 -46.0764 -45.7708 -45.7688
   -18.2163 -18.2040 -17.7732 -17.7689 -17.6124 -17.5945 -17.5393 -17.5236
   -17.4335 -17.4178 -17.3913 -17.3782 -10.1200  -9.9086  -9.5505  -9.3631
    -9.3113  -9.2634  -9.1409  -9.0162  -8.9797  -8.9086  -8.5351  -8.4478
    -8.3510  -8.2876  -8.1342  -8.0965  -7.9698  -7.7574  -7.7231  -7.6615
    -7.6105  -7.4857  -7.4511  -7.3482  -7.2579  -7.0066  -6.9954  -6.8597
    -6.8285  -6.7947  -6.6940  -6.4822  -6.3744  -6.3044  -6.2825  -6.1159
    -5.9802  -5.9417  -5.8729  -5.7911  -5.7239  -5.4757  -4.3690  -4.2853
    -4.2112  -4.1857  -3.8615  -3.8305  -3.5692  -3.4546  -3.4395  -3.3339
    -2.9066  -2.8216  -2.7211  -2.6687

     occupation numbers 
     1.0000   1.0000   1.0000   1.0000   1.0000   1.0000   1.0000   1.0000
     1.0000   1.0000   1.0000   1.0000   1.0000   1.0000   1.0000   1.0000
     1.0000   1.0000   1.0000   1.0000   1.0000   1.0000   1.0000   1.0000
     1.0000   1.0000   1.0000   1.0000   1.0000   1.0000   1.0000   1.0000
     1.0000   1.0000   1.0000   1.0000   1.0000   1.0000   1.0000   1.0000
     1.0000   1.0000   1.0000   1.0000   1.0000   1.0000   1.0000   1.0000
     1.0000   1.0000   1.0000   1.0000   1.0000   1.0000   1.0000   1.0000
     1.0000   1.0000   1.0000   1.0000   1.0000   1.0000   1.0000   1.0000
     1.0000   1.0000   1.0000   1.0000   1.0000   1.0000   0.0000   0.0000
     0.0000   0.0000   0.0000   0.0000   0.0000   0.0000   0.0000   0.0000
     0.0000   0.0000   0.0000   0.0000

          k = 0.1250-0.3608 0.0000 ( 52572 PWs)   bands (ev):

   -77.3267 -77.3266 -74.3849 -74.3848 -49.4758 -49.4743 -49.1586 -49.1581
   -48.7145 -48.7127 -46.3711 -46.3691 -46.0770 -46.0763 -45.7709 -45.7686
   -18.2681 -18.2549 -17.6975 -17.6918 -17.6407 -17.6227 -17.5552 -17.5401
   -17.4085 -17.3930 -17.3842 -17.3703 -10.0712  -9.8567  -9.6214  -9.4241
    -9.2934  -9.2525  -9.1715  -9.1027  -9.0525  -8.9395  -8.5184  -8.5027
    -8.3960  -8.2420  -8.1353  -8.0679  -7.9322  -7.7848  -7.7125  -7.6801
    -7.5897  -7.4742  -7.3741  -7.3297  -7.2019  -7.1018  -7.0512  -6.9644
    -6.8363  -6.7239  -6.5780  -6.5036  -6.3836  -6.3075  -6.2438  -6.0952
    -5.9702  -5.9393  -5.8781  -5.8100  -5.7054  -5.4516  -4.3969  -4.3089
    -4.2424  -4.0730  -3.8217  -3.7786  -3.5845  -3.5036  -3.4036  -3.3642
    -2.9167  -2.7883  -2.7406  -2.6538

     occupation numbers 
     1.0000   1.0000   1.0000   1.0000   1.0000   1.0000   1.0000   1.0000
     1.0000   1.0000   1.0000   1.0000   1.0000   1.0000   1.0000   1.0000
     1.0000   1.0000   1.0000   1.0000   1.0000   1.0000   1.0000   1.0000
     1.0000   1.0000   1.0000   1.0000   1.0000   1.0000   1.0000   1.0000
     1.0000   1.0000   1.0000   1.0000   1.0000   1.0000   1.0000   1.0000
     1.0000   1.0000   1.0000   1.0000   1.0000   1.0000   1.0000   1.0000
     1.0000   1.0000   1.0000   1.0000   1.0000   1.0000   1.0000   1.0000
     1.0000   1.0000   1.0000   1.0000   1.0000   1.0000   1.0000   1.0000
     1.0000   1.0000   1.0000   1.0000   1.0000   1.0000   0.0000   0.0000
     0.0000   0.0000   0.0000   0.0000   0.0000   0.0000   0.0000   0.0000
     0.0000   0.0000   0.0000   0.0000

          k = 0.1250-0.5052 0.0000 ( 52542 PWs)   bands (ev):

   -77.3267 -77.3266 -74.3849 -74.3848 -49.4755 -49.4746 -49.1585 -49.1582
   -48.7141 -48.7131 -46.3707 -46.3695 -46.0769 -46.0765 -45.7704 -45.7691
   -18.1245 -18.1140 -17.8494 -17.8477 -17.5828 -17.5677 -17.5644 -17.5468
   -17.4643 -17.4484 -17.3977 -17.3842 -10.0487  -9.8402  -9.5386  -9.3522
    -9.3001  -9.2445  -9.1086  -8.9819  -8.9468  -8.9137  -8.5643  -8.4787
    -8.4305  -8.3324  -8.1823  -8.1219  -7.9363  -7.8616  -7.8100  -7.6354
    -7.5966  -7.4672  -7.4132  -7.2671  -7.2141  -7.0042  -6.9201  -6.8606
    -6.7873  -6.7034  -6.6405  -6.4835  -6.4654  -6.3757  -6.2681  -6.1797
    -5.9635  -5.9400  -5.8800  -5.7480  -5.7263  -5.5044  -4.3305  -4.3108
    -4.2097  -4.1194  -3.8789  -3.8591  -3.5768  -3.5351  -3.3826  -3.3249
    -2.8764  -2.7833  -2.6971  -2.6654

     occupation numbers 
     1.0000   1.0000   1.0000   1.0000   1.0000   1.0000   1.0000   1.0000
     1.0000   1.0000   1.0000   1.0000   1.0000   1.0000   1.0000   1.0000
     1.0000   1.0000   1.0000   1.0000   1.0000   1.0000   1.0000   1.0000
     1.0000   1.0000   1.0000   1.0000   1.0000   1.0000   1.0000   1.0000
     1.0000   1.0000   1.0000   1.0000   1.0000   1.0000   1.0000   1.0000
     1.0000   1.0000   1.0000   1.0000   1.0000   1.0000   1.0000   1.0000
     1.0000   1.0000   1.0000   1.0000   1.0000   1.0000   1.0000   1.0000
     1.0000   1.0000   1.0000   1.0000   1.0000   1.0000   1.0000   1.0000
     1.0000   1.0000   1.0000   1.0000   1.0000   1.0000   0.0000   0.0000
     0.0000   0.0000   0.0000   0.0000   0.0000   0.0000   0.0000   0.0000
     0.0000   0.0000   0.0000   0.0000

     the Fermi energy is    -4.7673 ev

!    total energy              =    -512.11078120 Ry
     estimated scf accuracy    <          9.6E-14 Ry
     smearing contrib. (-TS)   =      -0.00000000 Ry
     internal energy E=F+TS    =    -512.11078120 Ry

     The total energy is F=E-TS. E is the sum of the following terms:
     one-electron contribution =   -1703.28100837 Ry
     hartree contribution      =     845.95369414 Ry
     xc contribution           =     -99.96455738 Ry
     ewald contribution        =     445.18109040 Ry

     total magnetization       =    -0.00     0.00     6.03 Bohr mag/cell
     absolute magnetization    =     7.16 Bohr mag/cell

     convergence has been achieved in  18 iterations

     Writing all to output data dir ./cri3_90Ry_8x8x1.save/
 
     init_run     :     14.49s CPU     15.31s WALL (       1 calls)
     electrons    :   1010.04s CPU   1037.48s WALL (       1 calls)

     Called by init_run:
     wfcinit      :     13.05s CPU     13.75s WALL (       1 calls)
     wfcinit:atom :      0.11s CPU      0.17s WALL (      15 calls)
     wfcinit:wfcr :     12.43s CPU     12.93s WALL (      15 calls)
     potinit      :      0.22s CPU      0.24s WALL (       1 calls)
     hinit0       :      0.47s CPU      0.54s WALL (       1 calls)

     Called by electrons:
     c_bands      :    877.91s CPU    901.07s WALL (      18 calls)
     sum_band     :    129.86s CPU    133.80s WALL (      18 calls)
     v_of_rho     :      0.33s CPU      0.34s WALL (      19 calls)
     v_h          :      0.08s CPU      0.08s WALL (      19 calls)
     v_xc         :      0.25s CPU      0.26s WALL (      19 calls)
     mix_rho      :      1.68s CPU      1.71s WALL (      18 calls)

     Called by c_bands:
     init_us_2    :      6.53s CPU      6.61s WALL (     555 calls)
     init_us_2:cp :      6.52s CPU      6.61s WALL (     555 calls)
     cegterg      :    801.23s CPU    823.80s WALL (     281 calls)

     Called by sum_band:
     sum_band:wei :      0.01s CPU      0.01s WALL (      18 calls)
     sum_band:loo :    129.29s CPU    133.20s WALL (      18 calls)
     sum_band:buf :      1.64s CPU      1.67s WALL (     270 calls)
     sum_band:ini :      2.96s CPU      2.99s WALL (     270 calls)

     Called by *egterg:
     cdiaghg      :     17.48s CPU     20.45s WALL (    2054 calls)
     cegterg:over :     48.05s CPU     48.79s WALL (    1784 calls)
     cegterg:upda :     63.42s CPU     64.15s WALL (    1784 calls)
     cegterg:last :     76.11s CPU     77.22s WALL (     719 calls)
     cdiaghg:chol :      1.06s CPU      1.10s WALL (    2054 calls)
     cdiaghg:inve :      0.66s CPU      0.68s WALL (    2054 calls)
     cdiaghg:para :      1.62s CPU      1.67s WALL (    4108 calls)
     h_psi        :    589.22s CPU    606.31s WALL (    2080 calls)
     g_psi        :      2.72s CPU      2.76s WALL (    1784 calls)

     Called by h_psi:
     h_psi:calbec :     41.89s CPU     42.30s WALL (    2080 calls)
     vloc_psi     :    498.52s CPU    514.49s WALL (    2080 calls)
     add_vuspsi   :     44.03s CPU     44.43s WALL (    2080 calls)

     General routines
     calbec       :     41.87s CPU     42.29s WALL (    2080 calls)
     fft          :      0.40s CPU      0.46s WALL (     165 calls)
     ffts         :      0.13s CPU      0.13s WALL (      72 calls)
     fftw         :    390.77s CPU    404.79s WALL (  340212 calls)
 
     Parallel routines
 
     PWSCF        :  17m 6.04s CPU  17m44.75s WALL

 
   This run was terminated on:  15:27:52  10Jan2024            

=------------------------------------------------------------------------------=
   JOB DONE.
=------------------------------------------------------------------------------=
