
     Program PWSCF v.7.0 starts on 19Jan2024 at 10:11: 9 

     This program is part of the open-source Quantum ESPRESSO suite
     for quantum simulation of materials; please cite
         "P. Giannozzi et al., J. Phys.:Condens. Matter 21 395502 (2009);
         "P. Giannozzi et al., J. Phys.:Condens. Matter 29 465901 (2017);
         "P. Giannozzi et al., J. Chem. Phys. 152 154105 (2020);
          URL http://www.quantum-espresso.org", 
     in publications or presentations arising from this work. More details at
     http://www.quantum-espresso.org/quote

     Parallel version (MPI), running on    12 processors

     MPI processes distributed on     1 nodes
     R & G space division:  proc/nbgrp/npool/nimage =      12
     56717 MiB available memory on the printing compute node when the environment starts
 
     Reading input from cri3-exp-soc_90Ry_k12x12x1.scf.in

     Current dimensions of program PWSCF are:
     Max number of different atomic species (ntypx) = 10
     Max number of k-points (npk) =  40000
     Max angular momentum in pseudopotentials (lmaxx) =  4

     Subspace diagonalization in iterative solution of the eigenvalue problem:
     one sub-group per band group will be used
     scalapack distributed-memory algorithm (size of sub-group:  3*  3 procs)

 
     Parallelization info
     --------------------
     sticks:   dense  smooth     PW     G-vecs:    dense   smooth      PW
     Min         348     348     93                35048    35048    4841
     Max         349     349     94                35057    35057    4846
     Sum        4177    4177   1123               420595   420595   58117
 
     Using Slab Decomposition
 


     bravais-lattice index     =            4
     lattice parameter (alat)  =      12.9767  a.u.
     unit-cell volume          =    3645.8815 (a.u.)^3
     number of atoms/cell      =            8
     number of atomic types    =            2
     number of electrons       =        70.00
     number of Kohn-Sham states=           84
     kinetic-energy cutoff     =      90.0000  Ry
     charge density cutoff     =     360.0000  Ry
     scf convergence threshold =      1.0E-13
     mixing beta               =       0.7000
     number of iterations used =            8  plain     mixing
     Exchange-correlation= PZ
                           (   1   1   0   0   0   0   0)
     Noncollinear calculation with spin-orbit


     celldm(1)=  12.976749  celldm(2)=   0.000000  celldm(3)=   1.926523
     celldm(4)=   0.000000  celldm(5)=   0.000000  celldm(6)=   0.000000

     crystal axes: (cart. coord. in units of alat)
               a(1) = (   1.000000   0.000000   0.000000 )  
               a(2) = (  -0.500000   0.866025   0.000000 )  
               a(3) = (   0.000000   0.000000   1.926523 )  

     reciprocal axes: (cart. coord. in units 2 pi/alat)
               b(1) = (  1.000000  0.577350  0.000000 )  
               b(2) = (  0.000000  1.154701  0.000000 )  
               b(3) = (  0.000000  0.000000  0.519070 )  


     PseudoPot. # 1 for Cr read from file:
     ./Cr_Alejandro.upf
     MD5 check sum: 19f8874af457815d5c8e16c7b8c57f71
     Pseudo is Norm-conserving + core correction, Zval = 14.0
     Generated using ONCVPSP code by D. R. Hamann
     Using radial grid of 1600 points, 10 beta functions with: 
                l(1) =   0
                l(2) =   0
                l(3) =   1
                l(4) =   1
                l(5) =   1
                l(6) =   1
                l(7) =   2
                l(8) =   2
                l(9) =   2
               l(10) =   2

     PseudoPot. # 2 for I  read from file:
     ./I_Alejandro.upf
     MD5 check sum: d0d4d45a39a9ecd37d4d9deb6bd296a3
     Pseudo is Norm-conserving + core correction, Zval =  7.0
     Generated using ONCVPSP code by D. R. Hamann
     Using radial grid of 1196 points, 10 beta functions with: 
                l(1) =   0
                l(2) =   0
                l(3) =   1
                l(4) =   1
                l(5) =   1
                l(6) =   1
                l(7) =   2
                l(8) =   2
                l(9) =   2
               l(10) =   2

     atomic species   valence    mass     pseudopotential
        Cr            14.00    51.99000     Cr( 1.00)
        I              7.00   126.90000     I ( 1.00)

     12 Sym. Ops., with inversion, found


                                    s                        frac. trans.

      isym =  1     identity                                     

 Time Reversal            0
 cryst.   s( 1) = (     1          0          0      )
                  (     0          1          0      )
                  (     0          0          1      )

 cart.    s( 1) = (  1.0000000  0.0000000  0.0000000 )
                  (  0.0000000  1.0000000  0.0000000 )
                  (  0.0000000  0.0000000  1.0000000 )


      isym =  2     180 deg rotation - cart. axis [0,1,0]        

 Time Reversal            1
 cryst.   s( 2) = (    -1          0          0      )
                  (     1          1          0      )
                  (     0          0         -1      )

 cart.    s( 2) = ( -1.0000000  0.0000000  0.0000000 )
                  (  0.0000000  1.0000000  0.0000000 )
                  (  0.0000000  0.0000000 -1.0000000 )


      isym =  3     120 deg rotation - cryst. axis [0,0,1]       

 Time Reversal            0
 cryst.   s( 3) = (     0          1          0      )
                  (    -1         -1          0      )
                  (     0          0          1      )

 cart.    s( 3) = ( -0.5000000 -0.8660254  0.0000000 )
                  (  0.8660254 -0.5000000  0.0000000 )
                  (  0.0000000  0.0000000  1.0000000 )


      isym =  4     120 deg rotation - cryst. axis [0,0,-1]      

 Time Reversal            0
 cryst.   s( 4) = (    -1         -1          0      )
                  (     1          0          0      )
                  (     0          0          1      )

 cart.    s( 4) = ( -0.5000000  0.8660254  0.0000000 )
                  ( -0.8660254 -0.5000000  0.0000000 )
                  (  0.0000000  0.0000000  1.0000000 )


      isym =  5     180 deg rotation - cryst. axis [1,-1,0]      

 Time Reversal            1
 cryst.   s( 5) = (     0         -1          0      )
                  (    -1          0          0      )
                  (     0          0         -1      )

 cart.    s( 5) = (  0.5000000 -0.8660254  0.0000000 )
                  ( -0.8660254 -0.5000000  0.0000000 )
                  (  0.0000000  0.0000000 -1.0000000 )


      isym =  6     180 deg rotation - cryst. axis [2,1,0]       

 Time Reversal            1
 cryst.   s( 6) = (     1          1          0      )
                  (     0         -1          0      )
                  (     0          0         -1      )

 cart.    s( 6) = (  0.5000000  0.8660254  0.0000000 )
                  (  0.8660254 -0.5000000  0.0000000 )
                  (  0.0000000  0.0000000 -1.0000000 )


      isym =  7     inversion                                    

 Time Reversal            0
 cryst.   s( 7) = (    -1          0          0      )
                  (     0         -1          0      )
                  (     0          0         -1      )

 cart.    s( 7) = ( -1.0000000  0.0000000  0.0000000 )
                  (  0.0000000 -1.0000000  0.0000000 )
                  (  0.0000000  0.0000000 -1.0000000 )


      isym =  8     inv. 180 deg rotation - cart. axis [0,1,0]   

 Time Reversal            1
 cryst.   s( 8) = (     1          0          0      )
                  (    -1         -1          0      )
                  (     0          0          1      )

 cart.    s( 8) = (  1.0000000  0.0000000  0.0000000 )
                  (  0.0000000 -1.0000000  0.0000000 )
                  (  0.0000000  0.0000000  1.0000000 )


      isym =  9     inv. 120 deg rotation - cryst. axis [0,0,1]  

 Time Reversal            0
 cryst.   s( 9) = (     0         -1          0      )
                  (     1          1          0      )
                  (     0          0         -1      )

 cart.    s( 9) = (  0.5000000  0.8660254  0.0000000 )
                  ( -0.8660254  0.5000000  0.0000000 )
                  (  0.0000000  0.0000000 -1.0000000 )


      isym = 10     inv. 120 deg rotation - cryst. axis [0,0,-1] 

 Time Reversal            0
 cryst.   s(10) = (     1          1          0      )
                  (    -1          0          0      )
                  (     0          0         -1      )

 cart.    s(10) = (  0.5000000 -0.8660254  0.0000000 )
                  (  0.8660254  0.5000000  0.0000000 )
                  (  0.0000000  0.0000000 -1.0000000 )


      isym = 11     inv. 180 deg rotation - cryst. axis [1,-1,0] 

 Time Reversal            1
 cryst.   s(11) = (     0          1          0      )
                  (     1          0          0      )
                  (     0          0          1      )

 cart.    s(11) = ( -0.5000000  0.8660254  0.0000000 )
                  (  0.8660254  0.5000000  0.0000000 )
                  (  0.0000000  0.0000000  1.0000000 )


      isym = 12     inv. 180 deg rotation - cryst. axis [2,1,0]  

 Time Reversal            1
 cryst.   s(12) = (    -1         -1          0      )
                  (     0          1          0      )
                  (     0          0          1      )

 cart.    s(12) = ( -0.5000000 -0.8660254  0.0000000 )
                  ( -0.8660254  0.5000000  0.0000000 )
                  (  0.0000000  0.0000000  1.0000000 )


     the magnetic double point group is D_3d (-3m)  [S_6 (-3)   ]
     using the double point group S_6 (-3)   
     there are 12 classes and  6 irreducible representations
     the character table:

       E     -E    C3    -C3   C3^2  -C3^2  i    -i    S6^5  -S6^5 S6    -S6  
                                                                              
G_4+   1.00 -1.00  0.50 -0.50  0.50 -0.50  1.00 -1.00  0.50 -0.50  0.50 -0.50
G_5+   1.00 -1.00  0.50 -0.50  0.50 -0.50  1.00 -1.00  0.50 -0.50  0.50 -0.50
G_6+   1.00 -1.00 -1.00  1.00 -1.00  1.00  1.00 -1.00 -1.00  1.00 -1.00  1.00
G_4-   1.00 -1.00  0.50 -0.50  0.50 -0.50 -1.00  1.00 -0.50  0.50 -0.50  0.50
G_5-   1.00 -1.00  0.50 -0.50  0.50 -0.50 -1.00  1.00 -0.50  0.50 -0.50  0.50
G_6-   1.00 -1.00 -1.00  1.00 -1.00  1.00 -1.00  1.00  1.00 -1.00  1.00 -1.00

     imaginary part

       E     -E    C3    -C3   C3^2  -C3^2  i    -i    S6^5  -S6^5 S6    -S6  
                                                                              
G_4+   0.00  0.00  0.87 -0.87 -0.87  0.87  0.00  0.00  0.87 -0.87 -0.87  0.87
G_5+   0.00  0.00 -0.87  0.87  0.87 -0.87  0.00  0.00 -0.87  0.87  0.87 -0.87
G_6+   0.00  0.00  0.00  0.00  0.00  0.00  0.00  0.00  0.00  0.00  0.00  0.00
G_4-   0.00  0.00  0.87 -0.87 -0.87  0.87  0.00  0.00 -0.87  0.87  0.87 -0.87
G_5-   0.00  0.00 -0.87  0.87  0.87 -0.87  0.00  0.00  0.87 -0.87 -0.87  0.87
G_6-   0.00  0.00  0.00  0.00  0.00  0.00  0.00  0.00  0.00  0.00  0.00  0.00

     the symmetry operations in each class and the name of the first element:

     E             1
          identity                                               
     -E           -1
          identity E                                             
     C3            2
          120 deg rotation - cryst. axis [0,0,1]                 
     -C3          -2
          120 deg rotation - cryst. axis [0,0,1] E               
     C3^2          3
          120 deg rotation - cryst. axis [0,0,-1]                
     -C3^2        -3
          120 deg rotation - cryst. axis [0,0,-1] E              
      i            4
          inversion                                              
     -i           -4
          inversion E                                            
     S6^5          5
          inv. 120 deg rotation - cryst. axis [0,0,1]            
     -S6^5        -5
          inv. 120 deg rotation - cryst. axis [0,0,1] E          
     S6            6
          inv. 120 deg rotation - cryst. axis [0,0,-1]           
     -S6          -6
          inv. 120 deg rotation - cryst. axis [0,0,-1] E         

   Cartesian axes

     site n.     atom                  positions (alat units)
         1           Cr  tau(   1) = (   0.5000000   0.2886751   0.0000000  )
         2           Cr  tau(   2) = (   0.0000000   0.5773503   0.0000000  )
         3           I   tau(   3) = (   0.3246775   0.5623579   0.2277694  )
         4           I   tau(   4) = (  -0.1753225   0.3036675   0.2277694  )
         5           I   tau(   5) = (   0.3506450   0.0000000   0.2277694  )
         6           I   tau(   6) = (   0.1753225   0.3036675  -0.2277694  )
         7           I   tau(   7) = (   0.6493550   0.0000000  -0.2277694  )
         8           I   tau(   8) = (  -0.3246775   0.5623579  -0.2277694  )

   Crystallographic axes

     site n.     atom                  positions (cryst. coord.)
         1           Cr  tau(   1) = (  0.6666667  0.3333333  0.0000000  )
         2           Cr  tau(   2) = (  0.3333333  0.6666667  0.0000000  )
         3           I   tau(   3) = (  0.6493550  0.6493550  0.1182283  )
         4           I   tau(   4) = (  0.0000000  0.3506450  0.1182283  )
         5           I   tau(   5) = (  0.3506450  0.0000000  0.1182283  )
         6           I   tau(   6) = (  0.3506450  0.3506450 -0.1182283  )
         7           I   tau(   7) = (  0.6493550  0.0000000 -0.1182283  )
         8           I   tau(   8) = (  0.0000000  0.6493550 -0.1182283  )

     number of k points=    19  Gaussian smearing, width (Ry)=  0.0050
                       cart. coord. in units 2pi/alat
        k(    1) = (   0.0000000   0.0000000   0.0000000), wk =   0.0069444
        k(    2) = (   0.0000000   0.0962250   0.0000000), wk =   0.0416667
        k(    3) = (   0.0000000   0.1924501   0.0000000), wk =   0.0416667
        k(    4) = (   0.0000000   0.2886751   0.0000000), wk =   0.0416667
        k(    5) = (   0.0000000   0.3849002   0.0000000), wk =   0.0416667
        k(    6) = (   0.0000000   0.4811252   0.0000000), wk =   0.0416667
        k(    7) = (   0.0000000  -0.5773503   0.0000000), wk =   0.0208333
        k(    8) = (   0.0833333   0.1443376   0.0000000), wk =   0.0416667
        k(    9) = (   0.0833333   0.2405626   0.0000000), wk =   0.0833333
        k(   10) = (   0.0833333   0.3367877   0.0000000), wk =   0.0833333
        k(   11) = (   0.0833333   0.4330127   0.0000000), wk =   0.0833333
        k(   12) = (   0.0833333   0.5292377   0.0000000), wk =   0.0833333
        k(   13) = (   0.1666667   0.2886751   0.0000000), wk =   0.0416667
        k(   14) = (   0.1666667   0.3849002   0.0000000), wk =   0.0833333
        k(   15) = (   0.1666667   0.4811252   0.0000000), wk =   0.0833333
        k(   16) = (   0.1666667   0.5773503   0.0000000), wk =   0.0416667
        k(   17) = (   0.2500000   0.4330127   0.0000000), wk =   0.0416667
        k(   18) = (   0.2500000   0.5292377   0.0000000), wk =   0.0833333
        k(   19) = (   0.3333333   0.5773503   0.0000000), wk =   0.0138889

                       cryst. coord.
        k(    1) = (   0.0000000   0.0000000   0.0000000), wk =   0.0069444
        k(    2) = (   0.0000000   0.0833333   0.0000000), wk =   0.0416667
        k(    3) = (   0.0000000   0.1666667   0.0000000), wk =   0.0416667
        k(    4) = (   0.0000000   0.2500000   0.0000000), wk =   0.0416667
        k(    5) = (   0.0000000   0.3333333   0.0000000), wk =   0.0416667
        k(    6) = (   0.0000000   0.4166667   0.0000000), wk =   0.0416667
        k(    7) = (   0.0000000  -0.5000000   0.0000000), wk =   0.0208333
        k(    8) = (   0.0833333   0.0833333   0.0000000), wk =   0.0416667
        k(    9) = (   0.0833333   0.1666667   0.0000000), wk =   0.0833333
        k(   10) = (   0.0833333   0.2500000   0.0000000), wk =   0.0833333
        k(   11) = (   0.0833333   0.3333333   0.0000000), wk =   0.0833333
        k(   12) = (   0.0833333   0.4166667   0.0000000), wk =   0.0833333
        k(   13) = (   0.1666667   0.1666667   0.0000000), wk =   0.0416667
        k(   14) = (   0.1666667   0.2500000   0.0000000), wk =   0.0833333
        k(   15) = (   0.1666667   0.3333333   0.0000000), wk =   0.0833333
        k(   16) = (   0.1666667   0.4166667   0.0000000), wk =   0.0416667
        k(   17) = (   0.2500000   0.2500000   0.0000000), wk =   0.0416667
        k(   18) = (   0.2500000   0.3333333   0.0000000), wk =   0.0833333
        k(   19) = (   0.3333333   0.3333333   0.0000000), wk =   0.0138889

     Dense  grid:   420595 G-vectors     FFT dimensions: (  80,  80, 160)

     Dynamical RAM for                 wfc:      11.23 MB

     Dynamical RAM for     wfc (w. buffer):     224.56 MB

     Dynamical RAM for           str. fact:       1.07 MB

     Dynamical RAM for           local pot:       0.00 MB

     Dynamical RAM for          nlocal pot:      18.18 MB

     Dynamical RAM for                qrad:       7.98 MB

     Dynamical RAM for          rho,v,vnew:      14.62 MB

     Dynamical RAM for               rhoin:       4.87 MB

     Dynamical RAM for            rho*nmix:      34.23 MB

     Dynamical RAM for           G-vectors:       2.27 MB

     Dynamical RAM for          h,s,v(r/c):       0.14 MB

     Dynamical RAM for          <psi|beta>:       0.70 MB

     Dynamical RAM for                 psi:      22.46 MB

     Dynamical RAM for                hpsi:      22.46 MB

     Dynamical RAM for      wfcinit/wfcrot:      17.82 MB

     Estimated static dynamical RAM per process >     280.63 MB

     Estimated max dynamical RAM per process >     360.61 MB

     Estimated total dynamical RAM >       4.23 GB
 ----2D----2D----2D----2D----2D----2D----2D----2D----2D----2D----2D----2D
  The code is running with the 2D cutoff
  Please refer to:
  Sohier, T., Calandra, M., & Mauri, F. (2017), 
  Density functional perturbation theory for gated two-dimensional heterostructu
 res:
  Theoretical developments and application to flexural phonons in graphene.
  Physical Review B, 96(7), 75448. https://doi.org/10.1103/PhysRevB.96.075448
 ----2D----2D----2D----2D----2D----2D----2D----2D----2D----2D----2D----2D
     Generating pointlists ...
     new r_m :   0.1637 (alat units)  2.1245 (a.u.) for type    1
     new r_m :   0.1637 (alat units)  2.1245 (a.u.) for type    2

     Initial potential from superposition of free atoms

     starting charge      69.9974, renormalised to      70.0000

     negative rho (up, down):  1.082E-07 1.489E-03

 ==============================================================================
     atom number    1 relative position :    0.5000   0.2887   0.0000
     charge :    12.703775  (integrated on a sphere of radius 0.164)
     magnetization :          0.000000    0.000000   12.368939
     magnetization/charge:    0.000000    0.000000    0.973643
     polar coord.: r, theta, phi [deg] :    12.368939    0.000000  360.000000

 ==============================================================================

 ==============================================================================
     atom number    2 relative position :    0.0000   0.5774   0.0000
     charge :    12.703775  (integrated on a sphere of radius 0.164)
     magnetization :          0.000000    0.000000   12.368939
     magnetization/charge:    0.000000    0.000000    0.973643
     polar coord.: r, theta, phi [deg] :    12.368939    0.000000  360.000000

 ==============================================================================

 ==============================================================================
     atom number    3 relative position :    0.3247   0.5624   0.2278
     charge :     4.088844  (integrated on a sphere of radius 0.164)
     magnetization :          0.000000    0.000000    0.080707
     magnetization/charge:    0.000000    0.000000    0.019738
     polar coord.: r, theta, phi [deg] :     0.080707    0.000000  360.000000

 ==============================================================================

 ==============================================================================
     atom number    4 relative position :   -0.1753   0.3037   0.2278
     charge :     4.088844  (integrated on a sphere of radius 0.164)
     magnetization :          0.000000    0.000000    0.080707
     magnetization/charge:    0.000000    0.000000    0.019738
     polar coord.: r, theta, phi [deg] :     0.080707    0.000000  360.000000

 ==============================================================================

 ==============================================================================
     atom number    5 relative position :    0.3506   0.0000   0.2278
     charge :     4.088844  (integrated on a sphere of radius 0.164)
     magnetization :          0.000000    0.000000    0.080707
     magnetization/charge:    0.000000    0.000000    0.019738
     polar coord.: r, theta, phi [deg] :     0.080707    0.000000  360.000000

 ==============================================================================

 ==============================================================================
     atom number    6 relative position :    0.1753   0.3037  -0.2278
     charge :     4.088844  (integrated on a sphere of radius 0.164)
     magnetization :          0.000000    0.000000    0.080707
     magnetization/charge:    0.000000    0.000000    0.019738
     polar coord.: r, theta, phi [deg] :     0.080707    0.000000  360.000000

 ==============================================================================

 ==============================================================================
     atom number    7 relative position :    0.6494   0.0000  -0.2278
     charge :     4.088844  (integrated on a sphere of radius 0.164)
     magnetization :          0.000000    0.000000    0.080707
     magnetization/charge:    0.000000    0.000000    0.019738
     polar coord.: r, theta, phi [deg] :     0.080707    0.000000  360.000000

 ==============================================================================

 ==============================================================================
     atom number    8 relative position :   -0.3247   0.5624  -0.2278
     charge :     4.088844  (integrated on a sphere of radius 0.164)
     magnetization :          0.000000    0.000000    0.080707
     magnetization/charge:    0.000000    0.000000    0.019738
     polar coord.: r, theta, phi [deg] :     0.080707    0.000000  360.000000

 ==============================================================================
     Starting wfcs are   88 randomized atomic wfcs

     total cpu time spent up to now is       30.8 secs

     Self-consistent Calculation

     iteration #  1     ecut=    90.00 Ry     beta= 0.70
     Davidson diagonalization with overlap

---- Real-time Memory Report at c_bands before calling an iterative solver
           436 MiB given to the printing process from OS
             0 MiB allocation reported by mallinfo(arena+hblkhd)
         49027 MiB available memory on the node where the printing process lives
------------------
     c_bands:  5 eigenvalues not converged
     c_bands:  1 eigenvalues not converged
     c_bands:  5 eigenvalues not converged
     c_bands:  1 eigenvalues not converged
     c_bands:  1 eigenvalues not converged
     c_bands:  5 eigenvalues not converged
     c_bands:  2 eigenvalues not converged
     c_bands:  1 eigenvalues not converged
     c_bands:  2 eigenvalues not converged
     c_bands:  5 eigenvalues not converged
     c_bands:  5 eigenvalues not converged
     c_bands:  5 eigenvalues not converged
     c_bands:  3 eigenvalues not converged
     ethr =  5.00E-06,  avg # of iterations = 31.0

     negative rho (up, down):  2.476E-08 1.261E-03

     total cpu time spent up to now is      415.1 secs

     total energy              =    -511.41399436 Ry
     estimated scf accuracy    <       4.45174147 Ry

     total magnetization       =     0.00    -0.00     6.30 Bohr mag/cell
     absolute magnetization    =    10.90 Bohr mag/cell

     iteration #  2     ecut=    90.00 Ry     beta= 0.70
     Davidson diagonalization with overlap

---- Real-time Memory Report at c_bands before calling an iterative solver
           516 MiB given to the printing process from OS
             0 MiB allocation reported by mallinfo(arena+hblkhd)
         45648 MiB available memory on the node where the printing process lives
------------------
     ethr =  6.36E-03,  avg # of iterations =  7.0

     negative rho (up, down):  8.636E-13 9.766E-07

     total cpu time spent up to now is      516.8 secs

     total energy              =    -511.78840919 Ry
     estimated scf accuracy    <       0.59354515 Ry

     total magnetization       =    -0.00     0.00     6.29 Bohr mag/cell
     absolute magnetization    =    10.66 Bohr mag/cell

     iteration #  3     ecut=    90.00 Ry     beta= 0.70
     Davidson diagonalization with overlap

---- Real-time Memory Report at c_bands before calling an iterative solver
           534 MiB given to the printing process from OS
             0 MiB allocation reported by mallinfo(arena+hblkhd)
         45366 MiB available memory on the node where the printing process lives
------------------
     c_bands:  2 eigenvalues not converged
     c_bands:  2 eigenvalues not converged
     c_bands:  2 eigenvalues not converged
     c_bands:  3 eigenvalues not converged
     c_bands:  2 eigenvalues not converged
     c_bands:  1 eigenvalues not converged
     c_bands:  1 eigenvalues not converged
     ethr =  8.48E-04,  avg # of iterations = 12.6

     total cpu time spent up to now is      652.8 secs

     total energy              =    -511.66024884 Ry
     estimated scf accuracy    <       3.47451056 Ry

     total magnetization       =     0.00     0.00     6.00 Bohr mag/cell
     absolute magnetization    =     6.70 Bohr mag/cell

     iteration #  4     ecut=    90.00 Ry     beta= 0.70
     Davidson diagonalization with overlap

---- Real-time Memory Report at c_bands before calling an iterative solver
           540 MiB given to the printing process from OS
             0 MiB allocation reported by mallinfo(arena+hblkhd)
         45024 MiB available memory on the node where the printing process lives
------------------
     c_bands:  1 eigenvalues not converged
     c_bands:  2 eigenvalues not converged
     c_bands:  3 eigenvalues not converged
     c_bands:  2 eigenvalues not converged
     c_bands:  4 eigenvalues not converged
     c_bands:  2 eigenvalues not converged
     c_bands:  4 eigenvalues not converged
     ethr =  8.48E-04,  avg # of iterations = 17.5

     total cpu time spent up to now is      809.3 secs

     total energy              =    -512.09196340 Ry
     estimated scf accuracy    <       0.05855867 Ry

     total magnetization       =     0.00    -0.00     6.06 Bohr mag/cell
     absolute magnetization    =     7.94 Bohr mag/cell

     iteration #  5     ecut=    90.00 Ry     beta= 0.70
     Davidson diagonalization with overlap

---- Real-time Memory Report at c_bands before calling an iterative solver
           544 MiB given to the printing process from OS
             0 MiB allocation reported by mallinfo(arena+hblkhd)
         48755 MiB available memory on the node where the printing process lives
------------------
     c_bands:  1 eigenvalues not converged
     ethr =  8.37E-05,  avg # of iterations =  7.8

     total cpu time spent up to now is      923.3 secs

     total energy              =    -512.10773041 Ry
     estimated scf accuracy    <       0.00779327 Ry

     total magnetization       =     0.00     0.00     6.04 Bohr mag/cell
     absolute magnetization    =     7.65 Bohr mag/cell

     iteration #  6     ecut=    90.00 Ry     beta= 0.70
     Davidson diagonalization with overlap

---- Real-time Memory Report at c_bands before calling an iterative solver
           554 MiB given to the printing process from OS
             0 MiB allocation reported by mallinfo(arena+hblkhd)
         50452 MiB available memory on the node where the printing process lives
------------------
     ethr =  1.11E-05,  avg # of iterations =  3.1

     total cpu time spent up to now is     1009.7 secs

     total energy              =    -512.11025060 Ry
     estimated scf accuracy    <       0.00123647 Ry

     total magnetization       =     0.00     0.00     6.04 Bohr mag/cell
     absolute magnetization    =     7.38 Bohr mag/cell

     iteration #  7     ecut=    90.00 Ry     beta= 0.70
     Davidson diagonalization with overlap

---- Real-time Memory Report at c_bands before calling an iterative solver
           558 MiB given to the printing process from OS
             0 MiB allocation reported by mallinfo(arena+hblkhd)
         50356 MiB available memory on the node where the printing process lives
------------------
     ethr =  1.77E-06,  avg # of iterations =  4.2

     total cpu time spent up to now is     1108.2 secs

     total energy              =    -512.11065300 Ry
     estimated scf accuracy    <       0.00031465 Ry

     total magnetization       =    -0.00    -0.00     6.03 Bohr mag/cell
     absolute magnetization    =     7.24 Bohr mag/cell

     iteration #  8     ecut=    90.00 Ry     beta= 0.70
     Davidson diagonalization with overlap

---- Real-time Memory Report at c_bands before calling an iterative solver
           565 MiB given to the printing process from OS
             0 MiB allocation reported by mallinfo(arena+hblkhd)
         50304 MiB available memory on the node where the printing process lives
------------------
     ethr =  4.50E-07,  avg # of iterations =  2.9

     total cpu time spent up to now is     1200.8 secs

     total energy              =    -512.11077365 Ry
     estimated scf accuracy    <       0.00003216 Ry

     total magnetization       =     0.00    -0.00     6.03 Bohr mag/cell
     absolute magnetization    =     7.16 Bohr mag/cell

     iteration #  9     ecut=    90.00 Ry     beta= 0.70
     Davidson diagonalization with overlap

---- Real-time Memory Report at c_bands before calling an iterative solver
           571 MiB given to the printing process from OS
             0 MiB allocation reported by mallinfo(arena+hblkhd)
         50201 MiB available memory on the node where the printing process lives
------------------
     ethr =  4.59E-08,  avg # of iterations =  4.1

     total cpu time spent up to now is     1289.8 secs

     total energy              =    -512.11078042 Ry
     estimated scf accuracy    <       0.00000139 Ry

     total magnetization       =     0.00    -0.00     6.03 Bohr mag/cell
     absolute magnetization    =     7.17 Bohr mag/cell

     iteration # 10     ecut=    90.00 Ry     beta= 0.70
     Davidson diagonalization with overlap

---- Real-time Memory Report at c_bands before calling an iterative solver
           576 MiB given to the printing process from OS
             0 MiB allocation reported by mallinfo(arena+hblkhd)
         50152 MiB available memory on the node where the printing process lives
------------------
     ethr =  1.98E-09,  avg # of iterations =  5.1

     total cpu time spent up to now is     1401.5 secs

     total energy              =    -512.11078095 Ry
     estimated scf accuracy    <       0.00000062 Ry

     total magnetization       =    -0.00     0.00     6.03 Bohr mag/cell
     absolute magnetization    =     7.16 Bohr mag/cell

     iteration # 11     ecut=    90.00 Ry     beta= 0.70
     Davidson diagonalization with overlap

---- Real-time Memory Report at c_bands before calling an iterative solver
           584 MiB given to the printing process from OS
             0 MiB allocation reported by mallinfo(arena+hblkhd)
         50029 MiB available memory on the node where the printing process lives
------------------
     ethr =  8.86E-10,  avg # of iterations =  2.0

     total cpu time spent up to now is     1490.9 secs

     total energy              =    -512.11078115 Ry
     estimated scf accuracy    <       0.00000007 Ry

     total magnetization       =    -0.00     0.00     6.03 Bohr mag/cell
     absolute magnetization    =     7.16 Bohr mag/cell

     iteration # 12     ecut=    90.00 Ry     beta= 0.70
     Davidson diagonalization with overlap

---- Real-time Memory Report at c_bands before calling an iterative solver
           585 MiB given to the printing process from OS
             0 MiB allocation reported by mallinfo(arena+hblkhd)
         49968 MiB available memory on the node where the printing process lives
------------------
     ethr =  9.33E-11,  avg # of iterations =  4.7

     total cpu time spent up to now is     1590.8 secs

     total energy              =    -512.11078116 Ry
     estimated scf accuracy    <       0.00000001 Ry

     total magnetization       =    -0.00     0.00     6.03 Bohr mag/cell
     absolute magnetization    =     7.16 Bohr mag/cell

     iteration # 13     ecut=    90.00 Ry     beta= 0.70
     Davidson diagonalization with overlap

---- Real-time Memory Report at c_bands before calling an iterative solver
           585 MiB given to the printing process from OS
             0 MiB allocation reported by mallinfo(arena+hblkhd)
         49973 MiB available memory on the node where the printing process lives
------------------
     ethr =  1.54E-11,  avg # of iterations =  2.4

     total cpu time spent up to now is     1680.7 secs

     total energy              =    -512.11078117 Ry
     estimated scf accuracy    <          3.7E-10 Ry

     total magnetization       =     0.00     0.00     6.03 Bohr mag/cell
     absolute magnetization    =     7.16 Bohr mag/cell

     iteration # 14     ecut=    90.00 Ry     beta= 0.70
     Davidson diagonalization with overlap

---- Real-time Memory Report at c_bands before calling an iterative solver
           586 MiB given to the printing process from OS
             0 MiB allocation reported by mallinfo(arena+hblkhd)
         49043 MiB available memory on the node where the printing process lives
------------------
     ethr =  5.33E-13,  avg # of iterations =  5.2

     total cpu time spent up to now is     1794.0 secs

     total energy              =    -512.11078117 Ry
     estimated scf accuracy    <          6.7E-11 Ry

     total magnetization       =    -0.00    -0.00     6.03 Bohr mag/cell
     absolute magnetization    =     7.16 Bohr mag/cell

     iteration # 15     ecut=    90.00 Ry     beta= 0.70
     Davidson diagonalization with overlap

---- Real-time Memory Report at c_bands before calling an iterative solver
           586 MiB given to the printing process from OS
             0 MiB allocation reported by mallinfo(arena+hblkhd)
         48990 MiB available memory on the node where the printing process lives
------------------
     ethr =  1.00E-13,  avg # of iterations =  3.8

     total cpu time spent up to now is     1896.1 secs

     total energy              =    -512.11078117 Ry
     estimated scf accuracy    <          5.6E-12 Ry

     total magnetization       =     0.00    -0.00     6.03 Bohr mag/cell
     absolute magnetization    =     7.16 Bohr mag/cell

     iteration # 16     ecut=    90.00 Ry     beta= 0.70
     Davidson diagonalization with overlap

---- Real-time Memory Report at c_bands before calling an iterative solver
           587 MiB given to the printing process from OS
             0 MiB allocation reported by mallinfo(arena+hblkhd)
         48991 MiB available memory on the node where the printing process lives
------------------
     ethr =  1.00E-13,  avg # of iterations =  1.0

     total cpu time spent up to now is     1971.1 secs

     total energy              =    -512.11078117 Ry
     estimated scf accuracy    <          1.1E-12 Ry

     total magnetization       =    -0.00    -0.00     6.03 Bohr mag/cell
     absolute magnetization    =     7.16 Bohr mag/cell

     iteration # 17     ecut=    90.00 Ry     beta= 0.70
     Davidson diagonalization with overlap

---- Real-time Memory Report at c_bands before calling an iterative solver
           587 MiB given to the printing process from OS
             0 MiB allocation reported by mallinfo(arena+hblkhd)
         48935 MiB available memory on the node where the printing process lives
------------------
     ethr =  1.00E-13,  avg # of iterations =  1.0

     total cpu time spent up to now is     2046.3 secs

     total energy              =    -512.11078117 Ry
     estimated scf accuracy    <          8.6E-13 Ry

     total magnetization       =    -0.00    -0.00     6.03 Bohr mag/cell
     absolute magnetization    =     7.16 Bohr mag/cell

     iteration # 18     ecut=    90.00 Ry     beta= 0.70
     Davidson diagonalization with overlap

---- Real-time Memory Report at c_bands before calling an iterative solver
           587 MiB given to the printing process from OS
             0 MiB allocation reported by mallinfo(arena+hblkhd)
         48938 MiB available memory on the node where the printing process lives
------------------
     ethr =  1.00E-13,  avg # of iterations =  1.0

     total cpu time spent up to now is     2121.8 secs

     total energy              =    -512.11078117 Ry
     estimated scf accuracy    <          1.5E-13 Ry

     total magnetization       =     0.00    -0.00     6.03 Bohr mag/cell
     absolute magnetization    =     7.16 Bohr mag/cell

     iteration # 19     ecut=    90.00 Ry     beta= 0.70
     Davidson diagonalization with overlap

---- Real-time Memory Report at c_bands before calling an iterative solver
           587 MiB given to the printing process from OS
             0 MiB allocation reported by mallinfo(arena+hblkhd)
         48927 MiB available memory on the node where the printing process lives
------------------
     ethr =  1.00E-13,  avg # of iterations =  1.0

     total cpu time spent up to now is     2197.4 secs

     total energy              =    -512.11078117 Ry
     estimated scf accuracy    <          3.2E-13 Ry

     total magnetization       =     0.00     0.00     6.03 Bohr mag/cell
     absolute magnetization    =     7.16 Bohr mag/cell

     iteration # 20     ecut=    90.00 Ry     beta= 0.70
     Davidson diagonalization with overlap

---- Real-time Memory Report at c_bands before calling an iterative solver
           587 MiB given to the printing process from OS
             0 MiB allocation reported by mallinfo(arena+hblkhd)
         48900 MiB available memory on the node where the printing process lives
------------------
     ethr =  1.00E-13,  avg # of iterations =  1.0

     total cpu time spent up to now is     2272.9 secs

     total energy              =    -512.11078117 Ry
     estimated scf accuracy    <          1.6E-13 Ry

     total magnetization       =     0.00     0.00     6.03 Bohr mag/cell
     absolute magnetization    =     7.16 Bohr mag/cell

     iteration # 21     ecut=    90.00 Ry     beta= 0.70
     Davidson diagonalization with overlap

---- Real-time Memory Report at c_bands before calling an iterative solver
           587 MiB given to the printing process from OS
             0 MiB allocation reported by mallinfo(arena+hblkhd)
         48901 MiB available memory on the node where the printing process lives
------------------
     ethr =  1.00E-13,  avg # of iterations =  1.0

 ==============================================================================
     atom number    1 relative position :    0.5000   0.2887   0.0000
     charge :    12.442655  (integrated on a sphere of radius 0.164)
     magnetization :         -0.000000    0.000000    2.945284
     magnetization/charge:   -0.000000    0.000000    0.236709
     polar coord.: r, theta, phi [deg] :     2.945284    0.000000  360.000000

 ==============================================================================

 ==============================================================================
     atom number    2 relative position :    0.0000   0.5774   0.0000
     charge :    12.442655  (integrated on a sphere of radius 0.164)
     magnetization :         -0.000000   -0.000000    2.945284
     magnetization/charge:   -0.000000   -0.000000    0.236709
     polar coord.: r, theta, phi [deg] :     2.945284    0.000000  360.000000

 ==============================================================================

 ==============================================================================
     atom number    3 relative position :    0.3247   0.5624   0.2278
     charge :     4.119849  (integrated on a sphere of radius 0.164)
     magnetization :         -0.000545   -0.000945   -0.050520
     magnetization/charge:   -0.000132   -0.000229   -0.012263
     polar coord.: r, theta, phi [deg] :     0.050532  178.763127 -120.000000

 ==============================================================================

 ==============================================================================
     atom number    4 relative position :   -0.1753   0.3037   0.2278
     charge :     4.119849  (integrated on a sphere of radius 0.164)
     magnetization :         -0.000545    0.000945   -0.050520
     magnetization/charge:   -0.000132    0.000229   -0.012263
     polar coord.: r, theta, phi [deg] :     0.050532  178.763127  120.000000

 ==============================================================================

 ==============================================================================
     atom number    5 relative position :    0.3506   0.0000   0.2278
     charge :     4.119849  (integrated on a sphere of radius 0.164)
     magnetization :          0.001091   -0.000000   -0.050520
     magnetization/charge:    0.000265   -0.000000   -0.012263
     polar coord.: r, theta, phi [deg] :     0.050532  178.763127    0.000000

 ==============================================================================

 ==============================================================================
     atom number    6 relative position :    0.1753   0.3037  -0.2278
     charge :     4.119849  (integrated on a sphere of radius 0.164)
     magnetization :         -0.000545   -0.000945   -0.050520
     magnetization/charge:   -0.000132   -0.000229   -0.012263
     polar coord.: r, theta, phi [deg] :     0.050532  178.763127 -120.000000

 ==============================================================================

 ==============================================================================
     atom number    7 relative position :    0.6494   0.0000  -0.2278
     charge :     4.119849  (integrated on a sphere of radius 0.164)
     magnetization :          0.001091    0.000000   -0.050520
     magnetization/charge:    0.000265    0.000000   -0.012263
     polar coord.: r, theta, phi [deg] :     0.050532  178.763127    0.000000

 ==============================================================================

 ==============================================================================
     atom number    8 relative position :   -0.3247   0.5624  -0.2278
     charge :     4.119849  (integrated on a sphere of radius 0.164)
     magnetization :         -0.000545    0.000945   -0.050520
     magnetization/charge:   -0.000132    0.000229   -0.012263
     polar coord.: r, theta, phi [deg] :     0.050532  178.763127  120.000000

 ==============================================================================

     total cpu time spent up to now is     2347.8 secs

     End of self-consistent calculation

          k = 0.0000 0.0000 0.0000 ( 52593 PWs)   bands (ev):

   -77.3267 -77.3265 -74.3850 -74.3847 -49.4764 -49.4737 -49.1588 -49.1579
   -48.7151 -48.7120 -46.3718 -46.3683 -46.0773 -46.0760 -45.7718 -45.7678
   -18.4844 -18.4665 -17.7601 -17.7414 -17.4529 -17.4507 -17.4381 -17.4359
   -17.3591 -17.3584 -17.3437 -17.3430 -10.1423  -9.8994  -9.6505  -9.4540
    -9.3031  -9.2823  -9.1753  -9.0803  -9.0418  -9.0031  -8.7993  -8.6608
    -8.5799  -8.5130  -8.2563  -8.1336  -8.1161  -7.8897  -7.8671  -7.7364
    -7.6356  -7.5980  -7.5245  -7.3059  -7.2703  -7.1465  -6.9901  -6.9159
    -6.6627  -6.6016  -6.3935  -6.3934  -6.1421  -6.0683  -6.0567  -6.0379
    -5.9704  -5.9628  -5.8397  -5.6670  -5.3420  -5.2572  -4.4201  -4.3550
    -4.1427  -3.7717  -3.7373  -3.7369  -3.7110  -3.6450  -3.4143  -3.3616
    -2.8680  -2.8364  -2.6822  -2.4703

     occupation numbers 
     1.0000   1.0000   1.0000   1.0000   1.0000   1.0000   1.0000   1.0000
     1.0000   1.0000   1.0000   1.0000   1.0000   1.0000   1.0000   1.0000
     1.0000   1.0000   1.0000   1.0000   1.0000   1.0000   1.0000   1.0000
     1.0000   1.0000   1.0000   1.0000   1.0000   1.0000   1.0000   1.0000
     1.0000   1.0000   1.0000   1.0000   1.0000   1.0000   1.0000   1.0000
     1.0000   1.0000   1.0000   1.0000   1.0000   1.0000   1.0000   1.0000
     1.0000   1.0000   1.0000   1.0000   1.0000   1.0000   1.0000   1.0000
     1.0000   1.0000   1.0000   1.0000   1.0000   1.0000   1.0000   1.0000
     1.0000   1.0000   1.0000   1.0000   1.0000   1.0000   0.0000   0.0000
     0.0000   0.0000   0.0000   0.0000   0.0000   0.0000   0.0000   0.0000
     0.0000   0.0000   0.0000   0.0000

          k = 0.0000 0.0962 0.0000 ( 52628 PWs)   bands (ev):

   -77.3267 -77.3265 -74.3850 -74.3847 -49.4764 -49.4738 -49.1588 -49.1579
   -48.7151 -48.7121 -46.3718 -46.3684 -46.0773 -46.0761 -45.7717 -45.7678
   -18.4696 -18.4520 -17.7517 -17.7330 -17.4724 -17.4607 -17.4582 -17.4458
   -17.3600 -17.3591 -17.3449 -17.3438 -10.1419  -9.9030  -9.6485  -9.4524
    -9.2874  -9.2850  -9.1594  -9.1072  -9.0530  -9.0337  -8.7480  -8.7029
    -8.5386  -8.4127  -8.2548  -8.1295  -8.0828  -7.8558  -7.8399  -7.6943
    -7.6570  -7.5829  -7.5458  -7.3037  -7.2531  -7.1473  -6.9950  -6.9292
    -6.6965  -6.6097  -6.4124  -6.3730  -6.1732  -6.1335  -6.0879  -6.0110
    -5.9619  -5.9365  -5.8818  -5.6584  -5.4329  -5.2945  -4.4176  -4.3481
    -4.1607  -3.8186  -3.7752  -3.7076  -3.6643  -3.6240  -3.4226  -3.3694
    -2.8727  -2.8333  -2.6968  -2.5087

     occupation numbers 
     1.0000   1.0000   1.0000   1.0000   1.0000   1.0000   1.0000   1.0000
     1.0000   1.0000   1.0000   1.0000   1.0000   1.0000   1.0000   1.0000
     1.0000   1.0000   1.0000   1.0000   1.0000   1.0000   1.0000   1.0000
     1.0000   1.0000   1.0000   1.0000   1.0000   1.0000   1.0000   1.0000
     1.0000   1.0000   1.0000   1.0000   1.0000   1.0000   1.0000   1.0000
     1.0000   1.0000   1.0000   1.0000   1.0000   1.0000   1.0000   1.0000
     1.0000   1.0000   1.0000   1.0000   1.0000   1.0000   1.0000   1.0000
     1.0000   1.0000   1.0000   1.0000   1.0000   1.0000   1.0000   1.0000
     1.0000   1.0000   1.0000   1.0000   1.0000   1.0000   0.0000   0.0000
     0.0000   0.0000   0.0000   0.0000   0.0000   0.0000   0.0000   0.0000
     0.0000   0.0000   0.0000   0.0000

          k = 0.0000 0.1925 0.0000 ( 52592 PWs)   bands (ev):

   -77.3267 -77.3265 -74.3850 -74.3847 -49.4762 -49.4739 -49.1587 -49.1580
   -48.7149 -48.7122 -46.3716 -46.3685 -46.0772 -46.0761 -45.7715 -45.7680
   -18.4260 -18.4093 -17.7270 -17.7085 -17.5290 -17.5168 -17.4825 -17.4673
   -17.3655 -17.3651 -17.3509 -17.3499 -10.1362  -9.9061  -9.6435  -9.4477
    -9.2867  -9.2612  -9.1550  -9.1418  -9.1022  -9.0194  -8.6941  -8.6438
    -8.4403  -8.3301  -8.1921  -8.1429  -7.9698  -7.8408  -7.7355  -7.7089
    -7.5980  -7.5631  -7.5197  -7.3073  -7.2263  -7.1557  -7.0172  -6.9604
    -6.7737  -6.6257  -6.4687  -6.3677  -6.2970  -6.1735  -6.1090  -6.0358
    -5.9910  -5.9434  -5.8922  -5.6542  -5.6155  -5.3662  -4.4119  -4.3280
    -4.2116  -3.9279  -3.7978  -3.6602  -3.6522  -3.5379  -3.4404  -3.3865
    -2.8883  -2.8294  -2.7286  -2.5788

     occupation numbers 
     1.0000   1.0000   1.0000   1.0000   1.0000   1.0000   1.0000   1.0000
     1.0000   1.0000   1.0000   1.0000   1.0000   1.0000   1.0000   1.0000
     1.0000   1.0000   1.0000   1.0000   1.0000   1.0000   1.0000   1.0000
     1.0000   1.0000   1.0000   1.0000   1.0000   1.0000   1.0000   1.0000
     1.0000   1.0000   1.0000   1.0000   1.0000   1.0000   1.0000   1.0000
     1.0000   1.0000   1.0000   1.0000   1.0000   1.0000   1.0000   1.0000
     1.0000   1.0000   1.0000   1.0000   1.0000   1.0000   1.0000   1.0000
     1.0000   1.0000   1.0000   1.0000   1.0000   1.0000   1.0000   1.0000
     1.0000   1.0000   1.0000   1.0000   1.0000   1.0000   0.0000   0.0000
     0.0000   0.0000   0.0000   0.0000   0.0000   0.0000   0.0000   0.0000
     0.0000   0.0000   0.0000   0.0000

          k = 0.0000 0.2887 0.0000 ( 52560 PWs)   bands (ev):

   -77.3267 -77.3265 -74.3850 -74.3847 -49.4761 -49.4741 -49.1587 -49.1580
   -48.7147 -48.7124 -46.3714 -46.3688 -46.0771 -46.0762 -45.7713 -45.7683
   -18.3563 -18.3411 -17.6883 -17.6700 -17.6140 -17.6048 -17.5080 -17.4926
   -17.3827 -17.3755 -17.3673 -17.3615 -10.1248  -9.9039  -9.6267  -9.4301
    -9.2844  -9.2564  -9.1753  -9.1445  -9.0828  -8.9816  -8.6027  -8.5303
    -8.3864  -8.3084  -8.1738  -7.9999  -7.9863  -7.8281  -7.7160  -7.6104
    -7.5757  -7.5436  -7.3822  -7.2949  -7.2278  -7.1782  -7.0716  -6.9772
    -6.8225  -6.7173  -6.5473  -6.4389  -6.3309  -6.2220  -6.1913  -6.1017
    -5.9813  -5.9187  -5.8902  -5.7602  -5.6735  -5.4218  -4.4014  -4.2969
    -4.2611  -4.0405  -3.8193  -3.7045  -3.5941  -3.4727  -3.4497  -3.3872
    -2.9017  -2.8377  -2.7417  -2.6324

     occupation numbers 
     1.0000   1.0000   1.0000   1.0000   1.0000   1.0000   1.0000   1.0000
     1.0000   1.0000   1.0000   1.0000   1.0000   1.0000   1.0000   1.0000
     1.0000   1.0000   1.0000   1.0000   1.0000   1.0000   1.0000   1.0000
     1.0000   1.0000   1.0000   1.0000   1.0000   1.0000   1.0000   1.0000
     1.0000   1.0000   1.0000   1.0000   1.0000   1.0000   1.0000   1.0000
     1.0000   1.0000   1.0000   1.0000   1.0000   1.0000   1.0000   1.0000
     1.0000   1.0000   1.0000   1.0000   1.0000   1.0000   1.0000   1.0000
     1.0000   1.0000   1.0000   1.0000   1.0000   1.0000   1.0000   1.0000
     1.0000   1.0000   1.0000   1.0000   1.0000   1.0000   0.0000   0.0000
     0.0000   0.0000   0.0000   0.0000   0.0000   0.0000   0.0000   0.0000
     0.0000   0.0000   0.0000   0.0000

          k = 0.0000 0.3849 0.0000 ( 52554 PWs)   bands (ev):

   -77.3267 -77.3266 -74.3849 -74.3848 -49.4758 -49.4743 -49.1586 -49.1581
   -48.7145 -48.7127 -46.3711 -46.3691 -46.0770 -46.0763 -45.7709 -45.7686
   -18.2659 -18.2527 -17.7182 -17.7123 -17.6391 -17.6211 -17.5306 -17.5150
   -17.4136 -17.3981 -17.3865 -17.3732 -10.1191  -9.9053  -9.5812  -9.3871
    -9.3042  -9.2563  -9.1695  -9.0707  -9.0223  -8.9262  -8.5214  -8.4892
    -8.3715  -8.2249  -8.1766  -8.0974  -7.9451  -7.7401  -7.7194  -7.6294
    -7.5637  -7.4852  -7.4750  -7.3311  -7.2106  -7.0683  -7.0571  -6.9278
    -6.8300  -6.7946  -6.6509  -6.4750  -6.3565  -6.2818  -6.2630  -6.0929
    -5.9784  -5.9294  -5.8851  -5.8060  -5.7078  -5.4593  -4.3810  -4.2844
    -4.2419  -4.1428  -3.8467  -3.7871  -3.5684  -3.4557  -3.4464  -3.3511
    -2.9008  -2.8370  -2.7319  -2.6622

     occupation numbers 
     1.0000   1.0000   1.0000   1.0000   1.0000   1.0000   1.0000   1.0000
     1.0000   1.0000   1.0000   1.0000   1.0000   1.0000   1.0000   1.0000
     1.0000   1.0000   1.0000   1.0000   1.0000   1.0000   1.0000   1.0000
     1.0000   1.0000   1.0000   1.0000   1.0000   1.0000   1.0000   1.0000
     1.0000   1.0000   1.0000   1.0000   1.0000   1.0000   1.0000   1.0000
     1.0000   1.0000   1.0000   1.0000   1.0000   1.0000   1.0000   1.0000
     1.0000   1.0000   1.0000   1.0000   1.0000   1.0000   1.0000   1.0000
     1.0000   1.0000   1.0000   1.0000   1.0000   1.0000   1.0000   1.0000
     1.0000   1.0000   1.0000   1.0000   1.0000   1.0000   0.0000   0.0000
     0.0000   0.0000   0.0000   0.0000   0.0000   0.0000   0.0000   0.0000
     0.0000   0.0000   0.0000   0.0000

          k = 0.0000 0.4811 0.0000 ( 52534 PWs)   bands (ev):

   -77.3267 -77.3266 -74.3849 -74.3848 -49.4756 -49.4745 -49.1585 -49.1582
   -48.7142 -48.7129 -46.3708 -46.3694 -46.0769 -46.0764 -45.7706 -45.7690
   -18.1675 -18.1561 -17.8260 -17.8230 -17.5858 -17.5680 -17.5458 -17.5301
   -17.4550 -17.4393 -17.3949 -17.3820 -10.1223  -9.9124  -9.5217  -9.3495
    -9.3082  -9.2705  -9.0999  -8.9616  -8.9332  -8.9093  -8.5376  -8.4233
    -8.3683  -8.3233  -8.1006  -8.0826  -8.0050  -7.8169  -7.7878  -7.6698
    -7.6193  -7.4857  -7.4238  -7.3373  -7.2934  -6.9867  -6.9288  -6.8595
    -6.7912  -6.7609  -6.6969  -6.4859  -6.3977  -6.3248  -6.2914  -6.1590
    -5.9775  -5.9498  -5.8593  -5.7664  -5.7368  -5.4916  -4.3565  -4.2849
    -4.2308  -4.1722  -3.8769  -3.8654  -3.5730  -3.4540  -3.4339  -3.3213
    -2.9143  -2.8060  -2.7084  -2.6691

     occupation numbers 
     1.0000   1.0000   1.0000   1.0000   1.0000   1.0000   1.0000   1.0000
     1.0000   1.0000   1.0000   1.0000   1.0000   1.0000   1.0000   1.0000
     1.0000   1.0000   1.0000   1.0000   1.0000   1.0000   1.0000   1.0000
     1.0000   1.0000   1.0000   1.0000   1.0000   1.0000   1.0000   1.0000
     1.0000   1.0000   1.0000   1.0000   1.0000   1.0000   1.0000   1.0000
     1.0000   1.0000   1.0000   1.0000   1.0000   1.0000   1.0000   1.0000
     1.0000   1.0000   1.0000   1.0000   1.0000   1.0000   1.0000   1.0000
     1.0000   1.0000   1.0000   1.0000   1.0000   1.0000   1.0000   1.0000
     1.0000   1.0000   1.0000   1.0000   1.0000   1.0000   0.0000   0.0000
     0.0000   0.0000   0.0000   0.0000   0.0000   0.0000   0.0000   0.0000
     0.0000   0.0000   0.0000   0.0000

          k = 0.0000-0.5774 0.0000 ( 52578 PWs)   bands (ev):

   -77.3267 -77.3266 -74.3849 -74.3848 -49.4755 -49.4746 -49.1585 -49.1582
   -48.7141 -48.7131 -46.3707 -46.3695 -46.0769 -46.0765 -45.7704 -45.7691
   -18.1094 -18.0985 -17.8877 -17.8854 -17.5513 -17.5510 -17.5354 -17.5329
   -17.4856 -17.4701 -17.3980 -17.3852 -10.1251  -9.9164  -9.4942  -9.3472
    -9.2959  -9.2748  -9.0254  -8.9638  -8.8987  -8.8623  -8.5394  -8.4469
    -8.4178  -8.2143  -8.2109  -8.0245  -8.0119  -7.9360  -7.8366  -7.6766
    -7.6300  -7.4854  -7.3925  -7.3127  -7.3052  -7.0046  -6.8953  -6.8191
    -6.8181  -6.6638  -6.6634  -6.4887  -6.4338  -6.3513  -6.2812  -6.2228
    -5.9734  -5.9591  -5.8420  -5.7486  -5.7358  -5.5098  -4.3372  -4.2839
    -4.2736  -4.1388  -3.9053  -3.8835  -3.5776  -3.4540  -3.4289  -3.3115
    -2.9221  -2.7938  -2.6976  -2.6604

     occupation numbers 
     1.0000   1.0000   1.0000   1.0000   1.0000   1.0000   1.0000   1.0000
     1.0000   1.0000   1.0000   1.0000   1.0000   1.0000   1.0000   1.0000
     1.0000   1.0000   1.0000   1.0000   1.0000   1.0000   1.0000   1.0000
     1.0000   1.0000   1.0000   1.0000   1.0000   1.0000   1.0000   1.0000
     1.0000   1.0000   1.0000   1.0000   1.0000   1.0000   1.0000   1.0000
     1.0000   1.0000   1.0000   1.0000   1.0000   1.0000   1.0000   1.0000
     1.0000   1.0000   1.0000   1.0000   1.0000   1.0000   1.0000   1.0000
     1.0000   1.0000   1.0000   1.0000   1.0000   1.0000   1.0000   1.0000
     1.0000   1.0000   1.0000   1.0000   1.0000   1.0000   0.0000   0.0000
     0.0000   0.0000   0.0000   0.0000   0.0000   0.0000   0.0000   0.0000
     0.0000   0.0000   0.0000   0.0000

          k = 0.0833 0.1443 0.0000 ( 52595 PWs)   bands (ev):

   -77.3267 -77.3265 -74.3850 -74.3847 -49.4763 -49.4739 -49.1587 -49.1579
   -48.7150 -48.7122 -46.3717 -46.3685 -46.0772 -46.0761 -45.7716 -45.7680
   -18.4404 -18.4234 -17.7351 -17.7166 -17.5084 -17.4956 -17.4787 -17.4636
   -17.3636 -17.3621 -17.3484 -17.3473 -10.1375  -9.9047  -9.6463  -9.4507
    -9.2934  -9.2613  -9.1558  -9.1281  -9.0981  -9.0253  -8.7061  -8.6737
    -8.4680  -8.3342  -8.2241  -8.1416  -7.9998  -7.8469  -7.7574  -7.7033
    -7.6019  -7.5741  -7.5537  -7.3015  -7.2329  -7.1527  -7.0135  -6.9468
    -6.7545  -6.6136  -6.4498  -6.3607  -6.2650  -6.1774  -6.0999  -6.0009
    -5.9810  -5.9513  -5.8970  -5.6521  -5.5681  -5.3465  -4.4145  -4.3343
    -4.1984  -3.8936  -3.7814  -3.7117  -3.6088  -3.5787  -3.4356  -3.3815
    -2.8863  -2.8265  -2.7210  -2.5592

     occupation numbers 
     1.0000   1.0000   1.0000   1.0000   1.0000   1.0000   1.0000   1.0000
     1.0000   1.0000   1.0000   1.0000   1.0000   1.0000   1.0000   1.0000
     1.0000   1.0000   1.0000   1.0000   1.0000   1.0000   1.0000   1.0000
     1.0000   1.0000   1.0000   1.0000   1.0000   1.0000   1.0000   1.0000
     1.0000   1.0000   1.0000   1.0000   1.0000   1.0000   1.0000   1.0000
     1.0000   1.0000   1.0000   1.0000   1.0000   1.0000   1.0000   1.0000
     1.0000   1.0000   1.0000   1.0000   1.0000   1.0000   1.0000   1.0000
     1.0000   1.0000   1.0000   1.0000   1.0000   1.0000   1.0000   1.0000
     1.0000   1.0000   1.0000   1.0000   1.0000   1.0000   0.0000   0.0000
     0.0000   0.0000   0.0000   0.0000   0.0000   0.0000   0.0000   0.0000
     0.0000   0.0000   0.0000   0.0000

          k = 0.0833 0.2406 0.0000 ( 52608 PWs)   bands (ev):

   -77.3267 -77.3265 -74.3850 -74.3847 -49.4761 -49.4740 -49.1587 -49.1580
   -48.7148 -48.7124 -46.3715 -46.3687 -46.0772 -46.0762 -45.7714 -45.7682
   -18.3837 -18.3679 -17.7034 -17.6850 -17.5752 -17.5649 -17.5067 -17.4915
   -17.3757 -17.3693 -17.3605 -17.3548 -10.1214  -9.8970  -9.6421  -9.4461
    -9.2934  -9.2497  -9.1754  -9.1393  -9.1055  -9.0005  -8.6400  -8.5612
    -8.3782  -8.3456  -8.1662  -8.0500  -7.9553  -7.8457  -7.7349  -7.6159
    -7.6114  -7.5531  -7.3997  -7.3074  -7.2386  -7.1815  -7.0530  -6.9651
    -6.8149  -6.6573  -6.5086  -6.4172  -6.3311  -6.2259  -6.1363  -6.0955
    -5.9760  -5.9418  -5.8757  -5.7264  -5.6622  -5.4013  -4.4119  -4.3079
    -4.2569  -3.9849  -3.7913  -3.7182  -3.5871  -3.5056  -3.4424  -3.3917
    -2.9120  -2.8168  -2.7435  -2.6112

     occupation numbers 
     1.0000   1.0000   1.0000   1.0000   1.0000   1.0000   1.0000   1.0000
     1.0000   1.0000   1.0000   1.0000   1.0000   1.0000   1.0000   1.0000
     1.0000   1.0000   1.0000   1.0000   1.0000   1.0000   1.0000   1.0000
     1.0000   1.0000   1.0000   1.0000   1.0000   1.0000   1.0000   1.0000
     1.0000   1.0000   1.0000   1.0000   1.0000   1.0000   1.0000   1.0000
     1.0000   1.0000   1.0000   1.0000   1.0000   1.0000   1.0000   1.0000
     1.0000   1.0000   1.0000   1.0000   1.0000   1.0000   1.0000   1.0000
     1.0000   1.0000   1.0000   1.0000   1.0000   1.0000   1.0000   1.0000
     1.0000   1.0000   1.0000   1.0000   1.0000   1.0000   0.0000   0.0000
     0.0000   0.0000   0.0000   0.0000   0.0000   0.0000   0.0000   0.0000
     0.0000   0.0000   0.0000   0.0000

          k = 0.0833 0.3368 0.0000 ( 52599 PWs)   bands (ev):

   -77.3267 -77.3266 -74.3849 -74.3848 -49.4759 -49.4742 -49.1586 -49.1581
   -48.7146 -48.7126 -46.3712 -46.3690 -46.0771 -46.0763 -45.7711 -45.7685
   -18.3032 -18.2892 -17.6674 -17.6605 -17.6592 -17.6413 -17.5341 -17.5188
   -17.3987 -17.3833 -17.3806 -17.3667 -10.1005  -9.8839  -9.6191  -9.4222
    -9.2932  -9.2547  -9.1774  -9.1156  -9.0652  -8.9527  -8.5396  -8.4958
    -8.4032  -8.2443  -8.1478  -8.0687  -7.9315  -7.8065  -7.7089  -7.6250
    -7.5697  -7.5067  -7.3859  -7.3063  -7.2041  -7.1518  -7.0725  -6.9716
    -6.8380  -6.7415  -6.5734  -6.4759  -6.3633  -6.2683  -6.2404  -6.0920
    -5.9657  -5.9368  -5.8709  -5.8140  -5.6931  -5.4415  -4.3996  -4.2968
    -4.2612  -4.0711  -3.8196  -3.7571  -3.5768  -3.4884  -3.4229  -3.3721
    -2.9167  -2.8126  -2.7418  -2.6483

     occupation numbers 
     1.0000   1.0000   1.0000   1.0000   1.0000   1.0000   1.0000   1.0000
     1.0000   1.0000   1.0000   1.0000   1.0000   1.0000   1.0000   1.0000
     1.0000   1.0000   1.0000   1.0000   1.0000   1.0000   1.0000   1.0000
     1.0000   1.0000   1.0000   1.0000   1.0000   1.0000   1.0000   1.0000
     1.0000   1.0000   1.0000   1.0000   1.0000   1.0000   1.0000   1.0000
     1.0000   1.0000   1.0000   1.0000   1.0000   1.0000   1.0000   1.0000
     1.0000   1.0000   1.0000   1.0000   1.0000   1.0000   1.0000   1.0000
     1.0000   1.0000   1.0000   1.0000   1.0000   1.0000   1.0000   1.0000
     1.0000   1.0000   1.0000   1.0000   1.0000   1.0000   0.0000   0.0000
     0.0000   0.0000   0.0000   0.0000   0.0000   0.0000   0.0000   0.0000
     0.0000   0.0000   0.0000   0.0000

          k = 0.0833 0.4330 0.0000 ( 52542 PWs)   bands (ev):

   -77.3267 -77.3266 -74.3849 -74.3848 -49.4757 -49.4744 -49.1585 -49.1581
   -48.7143 -48.7129 -46.3709 -46.3693 -46.0770 -46.0764 -45.7707 -45.7688
   -18.2068 -18.1948 -17.7737 -17.7698 -17.6079 -17.5900 -17.5551 -17.5398
   -17.4339 -17.4182 -17.3912 -17.3778 -10.0901  -9.8790  -9.5647  -9.3728
    -9.3060  -9.2542  -9.1505  -9.0317  -8.9847  -8.9128  -8.5431  -8.4562
    -8.3565  -8.3201  -8.1324  -8.0636  -7.9630  -7.7911  -7.7488  -7.6638
    -7.6041  -7.4787  -7.4099  -7.3511  -7.2256  -7.0258  -6.9865  -6.8887
    -6.8140  -6.7473  -6.6727  -6.4808  -6.4116  -6.3256  -6.2672  -6.1213
    -5.9713  -5.9436  -5.8774  -5.7850  -5.7253  -5.4766  -4.3684  -4.3020
    -4.2107  -4.1460  -3.8550  -3.8293  -3.5714  -3.4994  -3.4052  -3.3373
    -2.9018  -2.8022  -2.7204  -2.6676

     occupation numbers 
     1.0000   1.0000   1.0000   1.0000   1.0000   1.0000   1.0000   1.0000
     1.0000   1.0000   1.0000   1.0000   1.0000   1.0000   1.0000   1.0000
     1.0000   1.0000   1.0000   1.0000   1.0000   1.0000   1.0000   1.0000
     1.0000   1.0000   1.0000   1.0000   1.0000   1.0000   1.0000   1.0000
     1.0000   1.0000   1.0000   1.0000   1.0000   1.0000   1.0000   1.0000
     1.0000   1.0000   1.0000   1.0000   1.0000   1.0000   1.0000   1.0000
     1.0000   1.0000   1.0000   1.0000   1.0000   1.0000   1.0000   1.0000
     1.0000   1.0000   1.0000   1.0000   1.0000   1.0000   1.0000   1.0000
     1.0000   1.0000   1.0000   1.0000   1.0000   1.0000   0.0000   0.0000
     0.0000   0.0000   0.0000   0.0000   0.0000   0.0000   0.0000   0.0000
     0.0000   0.0000   0.0000   0.0000

          k = 0.0833 0.5292 0.0000 ( 52560 PWs)   bands (ev):

   -77.3267 -77.3266 -74.3849 -74.3848 -49.4755 -49.4746 -49.1585 -49.1582
   -48.7141 -48.7131 -46.3707 -46.3695 -46.0769 -46.0765 -45.7704 -45.7691
   -18.1174 -18.1067 -17.8688 -17.8668 -17.5666 -17.5584 -17.5511 -17.5406
   -17.4745 -17.4588 -17.3975 -17.3843 -10.0896  -9.8810  -9.5130  -9.3424
    -9.3017  -9.2612  -9.0720  -8.9578  -8.9269  -8.8924  -8.5519  -8.4674
    -8.4175  -8.3017  -8.1759  -8.1089  -7.9379  -7.8925  -7.8305  -7.6538
    -7.5855  -7.5028  -7.4143  -7.2817  -7.2586  -6.9913  -6.9051  -6.8541
    -6.7969  -6.7010  -6.6395  -6.4908  -6.4451  -6.3637  -6.2817  -6.1963
    -5.9609  -5.9493  -5.8651  -5.7476  -5.7322  -5.5071  -4.3322  -4.3014
    -4.2349  -4.1333  -3.8877  -3.8777  -3.5744  -3.5045  -3.3970  -3.3178
    -2.8979  -2.7904  -2.6973  -2.6631

     occupation numbers 
     1.0000   1.0000   1.0000   1.0000   1.0000   1.0000   1.0000   1.0000
     1.0000   1.0000   1.0000   1.0000   1.0000   1.0000   1.0000   1.0000
     1.0000   1.0000   1.0000   1.0000   1.0000   1.0000   1.0000   1.0000
     1.0000   1.0000   1.0000   1.0000   1.0000   1.0000   1.0000   1.0000
     1.0000   1.0000   1.0000   1.0000   1.0000   1.0000   1.0000   1.0000
     1.0000   1.0000   1.0000   1.0000   1.0000   1.0000   1.0000   1.0000
     1.0000   1.0000   1.0000   1.0000   1.0000   1.0000   1.0000   1.0000
     1.0000   1.0000   1.0000   1.0000   1.0000   1.0000   1.0000   1.0000
     1.0000   1.0000   1.0000   1.0000   1.0000   1.0000   0.0000   0.0000
     0.0000   0.0000   0.0000   0.0000   0.0000   0.0000   0.0000   0.0000
     0.0000   0.0000   0.0000   0.0000

          k = 0.1667 0.2887 0.0000 ( 52609 PWs)   bands (ev):

   -77.3267 -77.3266 -74.3849 -74.3848 -49.4760 -49.4742 -49.1586 -49.1580
   -48.7146 -48.7126 -46.3713 -46.3689 -46.0771 -46.0763 -45.7711 -45.7684
   -18.3160 -18.3017 -17.6665 -17.6483 -17.6420 -17.6346 -17.5445 -17.5293
   -17.3933 -17.3781 -17.3771 -17.3630 -10.0815  -9.8632  -9.6440  -9.4470
    -9.2953  -9.2519  -9.1715  -9.1252  -9.0938  -8.9672  -8.5557  -8.4773
    -8.4303  -8.2491  -8.1325  -8.0520  -7.9103  -7.8580  -7.6995  -7.6472
    -7.5797  -7.5008  -7.3229  -7.3058  -7.2447  -7.1849  -7.0639  -6.9800
    -6.8377  -6.6879  -6.5302  -6.5074  -6.3566  -6.2768  -6.2252  -6.0919
    -5.9638  -5.9378  -5.8645  -5.8167  -5.6877  -5.4311  -4.4139  -4.3041
    -4.2672  -4.0286  -3.7818  -3.7705  -3.5857  -3.4965  -3.4171  -3.3817
    -2.9294  -2.7861  -2.7512  -2.6374

     occupation numbers 
     1.0000   1.0000   1.0000   1.0000   1.0000   1.0000   1.0000   1.0000
     1.0000   1.0000   1.0000   1.0000   1.0000   1.0000   1.0000   1.0000
     1.0000   1.0000   1.0000   1.0000   1.0000   1.0000   1.0000   1.0000
     1.0000   1.0000   1.0000   1.0000   1.0000   1.0000   1.0000   1.0000
     1.0000   1.0000   1.0000   1.0000   1.0000   1.0000   1.0000   1.0000
     1.0000   1.0000   1.0000   1.0000   1.0000   1.0000   1.0000   1.0000
     1.0000   1.0000   1.0000   1.0000   1.0000   1.0000   1.0000   1.0000
     1.0000   1.0000   1.0000   1.0000   1.0000   1.0000   1.0000   1.0000
     1.0000   1.0000   1.0000   1.0000   1.0000   1.0000   0.0000   0.0000
     0.0000   0.0000   0.0000   0.0000   0.0000   0.0000   0.0000   0.0000
     0.0000   0.0000   0.0000   0.0000

          k = 0.1667 0.3849 0.0000 ( 52570 PWs)   bands (ev):

   -77.3267 -77.3266 -74.3849 -74.3848 -49.4757 -49.4744 -49.1586 -49.1581
   -48.7143 -48.7128 -46.3710 -46.3692 -46.0770 -46.0764 -45.7708 -45.7688
   -18.2280 -18.2157 -17.7302 -17.7261 -17.6199 -17.6020 -17.5787 -17.5635
   -17.4191 -17.4034 -17.3892 -17.3752 -10.0310  -9.8184  -9.6260  -9.4282
    -9.2887  -9.2478  -9.1601  -9.0963  -9.0309  -8.9312  -8.5434  -8.4882
    -8.3789  -8.3037  -8.1295  -8.0306  -7.9473  -7.7992  -7.7369  -7.6684
    -7.6332  -7.4741  -7.3735  -7.2824  -7.1880  -7.0862  -7.0184  -6.9358
    -6.8209  -6.7030  -6.5904  -6.5297  -6.3963  -6.3453  -6.2392  -6.1085
    -5.9920  -5.9424  -5.8774  -5.7868  -5.7175  -5.4642  -4.3849  -4.3174
    -4.2217  -4.0717  -3.8378  -3.7825  -3.6033  -3.5178  -3.3863  -3.3566
    -2.9038  -2.7660  -2.7346  -2.6593

     occupation numbers 
     1.0000   1.0000   1.0000   1.0000   1.0000   1.0000   1.0000   1.0000
     1.0000   1.0000   1.0000   1.0000   1.0000   1.0000   1.0000   1.0000
     1.0000   1.0000   1.0000   1.0000   1.0000   1.0000   1.0000   1.0000
     1.0000   1.0000   1.0000   1.0000   1.0000   1.0000   1.0000   1.0000
     1.0000   1.0000   1.0000   1.0000   1.0000   1.0000   1.0000   1.0000
     1.0000   1.0000   1.0000   1.0000   1.0000   1.0000   1.0000   1.0000
     1.0000   1.0000   1.0000   1.0000   1.0000   1.0000   1.0000   1.0000
     1.0000   1.0000   1.0000   1.0000   1.0000   1.0000   1.0000   1.0000
     1.0000   1.0000   1.0000   1.0000   1.0000   1.0000   0.0000   0.0000
     0.0000   0.0000   0.0000   0.0000   0.0000   0.0000   0.0000   0.0000
     0.0000   0.0000   0.0000   0.0000

          k = 0.1667 0.4811 0.0000 ( 52543 PWs)   bands (ev):

   -77.3267 -77.3266 -74.3849 -74.3848 -49.4755 -49.4746 -49.1585 -49.1582
   -48.7141 -48.7131 -46.3707 -46.3695 -46.0769 -46.0765 -45.7704 -45.7691
   -18.1310 -18.1207 -17.8288 -17.8275 -17.6007 -17.5857 -17.5696 -17.5519
   -17.4543 -17.4383 -17.3991 -17.3853  -9.9992  -9.7906  -9.5748  -9.3809
    -9.2886  -9.2299  -9.1341  -9.0264  -8.9593  -8.9305  -8.5770  -8.4855
    -8.4491  -8.3463  -8.1940  -8.1206  -7.9394  -7.8454  -7.7836  -7.6239
    -7.6175  -7.4690  -7.3473  -7.2545  -7.1798  -7.0291  -6.9430  -6.8619
    -6.7858  -6.6841  -6.6472  -6.4957  -6.4622  -6.3814  -6.2505  -6.1683
    -5.9864  -5.9404  -5.8740  -5.7498  -5.7185  -5.5015  -4.3303  -4.3192
    -4.1956  -4.0941  -3.8745  -3.8294  -3.6009  -3.5460  -3.3719  -3.3330
    -2.8597  -2.7708  -2.6963  -2.6675

     occupation numbers 
     1.0000   1.0000   1.0000   1.0000   1.0000   1.0000   1.0000   1.0000
     1.0000   1.0000   1.0000   1.0000   1.0000   1.0000   1.0000   1.0000
     1.0000   1.0000   1.0000   1.0000   1.0000   1.0000   1.0000   1.0000
     1.0000   1.0000   1.0000   1.0000   1.0000   1.0000   1.0000   1.0000
     1.0000   1.0000   1.0000   1.0000   1.0000   1.0000   1.0000   1.0000
     1.0000   1.0000   1.0000   1.0000   1.0000   1.0000   1.0000   1.0000
     1.0000   1.0000   1.0000   1.0000   1.0000   1.0000   1.0000   1.0000
     1.0000   1.0000   1.0000   1.0000   1.0000   1.0000   1.0000   1.0000
     1.0000   1.0000   1.0000   1.0000   1.0000   1.0000   0.0000   0.0000
     0.0000   0.0000   0.0000   0.0000   0.0000   0.0000   0.0000   0.0000
     0.0000   0.0000   0.0000   0.0000

          k = 0.1667 0.5774 0.0000 ( 52528 PWs)   bands (ev):

   -77.3267 -77.3266 -74.3849 -74.3848 -49.4754 -49.4747 -49.1584 -49.1582
   -48.7139 -48.7132 -46.3705 -46.3697 -46.0768 -46.0765 -45.7703 -45.7693
   -18.0709 -18.0613 -17.8900 -17.8893 -17.6082 -17.5932 -17.5364 -17.5186
   -17.4822 -17.4662 -17.4028 -17.3891  -9.9908  -9.7836  -9.5419  -9.3541
    -9.2883  -9.2243  -9.0857  -9.0100  -8.9531  -8.9081  -8.6106  -8.5316
    -8.4437  -8.3319  -8.2777  -8.1427  -8.0350  -7.8683  -7.6983  -7.6088
    -7.5912  -7.4671  -7.4056  -7.1925  -7.1687  -7.0009  -6.9162  -6.8567
    -6.8022  -6.6827  -6.5844  -6.5104  -6.4796  -6.3965  -6.2623  -6.2002
    -5.9663  -5.9430  -5.8755  -5.7553  -5.6876  -5.5235  -4.3231  -4.2892
    -4.2143  -4.0831  -3.8795  -3.8630  -3.5919  -3.5629  -3.3676  -3.3246
    -2.8385  -2.7768  -2.6919  -2.6520

     occupation numbers 
     1.0000   1.0000   1.0000   1.0000   1.0000   1.0000   1.0000   1.0000
     1.0000   1.0000   1.0000   1.0000   1.0000   1.0000   1.0000   1.0000
     1.0000   1.0000   1.0000   1.0000   1.0000   1.0000   1.0000   1.0000
     1.0000   1.0000   1.0000   1.0000   1.0000   1.0000   1.0000   1.0000
     1.0000   1.0000   1.0000   1.0000   1.0000   1.0000   1.0000   1.0000
     1.0000   1.0000   1.0000   1.0000   1.0000   1.0000   1.0000   1.0000
     1.0000   1.0000   1.0000   1.0000   1.0000   1.0000   1.0000   1.0000
     1.0000   1.0000   1.0000   1.0000   1.0000   1.0000   1.0000   1.0000
     1.0000   1.0000   1.0000   1.0000   1.0000   1.0000   0.0000   0.0000
     0.0000   0.0000   0.0000   0.0000   0.0000   0.0000   0.0000   0.0000
     0.0000   0.0000   0.0000   0.0000

          k = 0.2500 0.4330 0.0000 ( 52526 PWs)   bands (ev):

   -77.3267 -77.3266 -74.3849 -74.3848 -49.4755 -49.4746 -49.1585 -49.1582
   -48.7141 -48.7131 -46.3707 -46.3695 -46.0769 -46.0765 -45.7704 -45.7691
   -18.1370 -18.1268 -17.8058 -17.8050 -17.6213 -17.6061 -17.5741 -17.5565
   -17.4435 -17.4274 -17.4020 -17.3880  -9.9327  -9.7240  -9.6306  -9.4327
    -9.2717  -9.2289  -9.1236  -9.0882  -8.9772  -8.9447  -8.5900  -8.4891
    -8.4687  -8.3522  -8.2064  -8.1129  -7.9457  -7.8307  -7.7579  -7.6527
    -7.6008  -7.4829  -7.2664  -7.2175  -7.1593  -7.0873  -6.9382  -6.8708
    -6.8030  -6.6727  -6.6392  -6.5153  -6.4520  -6.3649  -6.2254  -6.1660
    -6.0360  -5.9415  -5.8549  -5.7532  -5.7097  -5.4983  -4.3315  -4.3273
    -4.1895  -4.0601  -3.8703  -3.7838  -3.6518  -3.5428  -3.3624  -3.3428
    -2.8490  -2.7530  -2.6934  -2.6696

     occupation numbers 
     1.0000   1.0000   1.0000   1.0000   1.0000   1.0000   1.0000   1.0000
     1.0000   1.0000   1.0000   1.0000   1.0000   1.0000   1.0000   1.0000
     1.0000   1.0000   1.0000   1.0000   1.0000   1.0000   1.0000   1.0000
     1.0000   1.0000   1.0000   1.0000   1.0000   1.0000   1.0000   1.0000
     1.0000   1.0000   1.0000   1.0000   1.0000   1.0000   1.0000   1.0000
     1.0000   1.0000   1.0000   1.0000   1.0000   1.0000   1.0000   1.0000
     1.0000   1.0000   1.0000   1.0000   1.0000   1.0000   1.0000   1.0000
     1.0000   1.0000   1.0000   1.0000   1.0000   1.0000   1.0000   1.0000
     1.0000   1.0000   1.0000   1.0000   1.0000   1.0000   0.0000   0.0000
     0.0000   0.0000   0.0000   0.0000   0.0000   0.0000   0.0000   0.0000
     0.0000   0.0000   0.0000   0.0000

          k = 0.2500 0.5292 0.0000 ( 52522 PWs)   bands (ev):

   -77.3266 -77.3266 -74.3849 -74.3848 -49.4753 -49.4748 -49.1584 -49.1583
   -48.7138 -48.7133 -46.3704 -46.3698 -46.0768 -46.0766 -45.7701 -45.7694
   -18.0461 -18.0379 -17.8894 -17.8871 -17.6453 -17.6301 -17.5302 -17.5127
   -17.4734 -17.4569 -17.4115 -17.3977  -9.8609  -9.6551  -9.6157  -9.4200
    -9.2655  -9.1948  -9.1020  -9.0526  -9.0136  -8.9403  -8.6364  -8.5718
    -8.4567  -8.4005  -8.3013  -8.1557  -8.0817  -7.8615  -7.6759  -7.5874
    -7.5442  -7.4294  -7.3208  -7.1771  -7.1022  -7.0218  -6.9328  -6.8355
    -6.8198  -6.7164  -6.5789  -6.5010  -6.4559  -6.4007  -6.2358  -6.1993
    -6.0400  -5.9345  -5.8489  -5.7597  -5.6523  -5.5376  -4.3327  -4.2758
    -4.1903  -4.0348  -3.8688  -3.8181  -3.6724  -3.5606  -3.3530  -3.3330
    -2.7922  -2.7583  -2.6931  -2.6406

     occupation numbers 
     1.0000   1.0000   1.0000   1.0000   1.0000   1.0000   1.0000   1.0000
     1.0000   1.0000   1.0000   1.0000   1.0000   1.0000   1.0000   1.0000
     1.0000   1.0000   1.0000   1.0000   1.0000   1.0000   1.0000   1.0000
     1.0000   1.0000   1.0000   1.0000   1.0000   1.0000   1.0000   1.0000
     1.0000   1.0000   1.0000   1.0000   1.0000   1.0000   1.0000   1.0000
     1.0000   1.0000   1.0000   1.0000   1.0000   1.0000   1.0000   1.0000
     1.0000   1.0000   1.0000   1.0000   1.0000   1.0000   1.0000   1.0000
     1.0000   1.0000   1.0000   1.0000   1.0000   1.0000   1.0000   1.0000
     1.0000   1.0000   1.0000   1.0000   1.0000   1.0000   0.0000   0.0000
     0.0000   0.0000   0.0000   0.0000   0.0000   0.0000   0.0000   0.0000
     0.0000   0.0000   0.0000   0.0000

          k = 0.3333 0.5774 0.0000 ( 52536 PWs)   bands (ev):

   -77.3266 -77.3266 -74.3848 -74.3848 -49.4751 -49.4751 -49.1583 -49.1583
   -48.7136 -48.7136 -46.3701 -46.3701 -46.0767 -46.0767 -45.7698 -45.7698
   -17.9630 -17.9617 -17.9573 -17.9562 -17.6642 -17.6487 -17.4968 -17.4967
   -17.4797 -17.4796 -17.4188 -17.4051  -9.7413  -9.6860  -9.5347  -9.4908
    -9.2640  -9.1557  -9.1121  -9.0637  -9.0273  -8.9838  -8.6556  -8.5858
    -8.4725  -8.4396  -8.3211  -8.2022  -8.1070  -7.8666  -7.6928  -7.5571
    -7.3988  -7.3947  -7.3907  -7.1790  -7.0592  -6.9806  -6.9546  -6.8507
    -6.7991  -6.7647  -6.5493  -6.4860  -6.4287  -6.4225  -6.2402  -6.2036
    -6.0690  -5.9285  -5.8399  -5.7629  -5.5980  -5.5787  -4.3373  -4.2540
    -4.1888  -4.0064  -3.8423  -3.8238  -3.7145  -3.5641  -3.3486  -3.3320
    -2.7612  -2.7478  -2.7046  -2.6204

     occupation numbers 
     1.0000   1.0000   1.0000   1.0000   1.0000   1.0000   1.0000   1.0000
     1.0000   1.0000   1.0000   1.0000   1.0000   1.0000   1.0000   1.0000
     1.0000   1.0000   1.0000   1.0000   1.0000   1.0000   1.0000   1.0000
     1.0000   1.0000   1.0000   1.0000   1.0000   1.0000   1.0000   1.0000
     1.0000   1.0000   1.0000   1.0000   1.0000   1.0000   1.0000   1.0000
     1.0000   1.0000   1.0000   1.0000   1.0000   1.0000   1.0000   1.0000
     1.0000   1.0000   1.0000   1.0000   1.0000   1.0000   1.0000   1.0000
     1.0000   1.0000   1.0000   1.0000   1.0000   1.0000   1.0000   1.0000
     1.0000   1.0000   1.0000   1.0000   1.0000   1.0000   0.0000   0.0000
     0.0000   0.0000   0.0000   0.0000   0.0000   0.0000   0.0000   0.0000
     0.0000   0.0000   0.0000   0.0000

     the Fermi energy is    -4.7673 ev

!    total energy              =    -512.11078117 Ry
     estimated scf accuracy    <          2.5E-14 Ry
     smearing contrib. (-TS)   =      -0.00000000 Ry
     internal energy E=F+TS    =    -512.11078117 Ry

     The total energy is F=E-TS. E is the sum of the following terms:
     one-electron contribution =   -1703.28100239 Ry
     hartree contribution      =     845.95368781 Ry
     xc contribution           =     -99.96455733 Ry
     ewald contribution        =     445.18109075 Ry

     total magnetization       =    -0.00     0.00     6.03 Bohr mag/cell
     absolute magnetization    =     7.16 Bohr mag/cell

     convergence has been achieved in  21 iterations

     Writing all to output data dir ./cri3_90Ry_k12x12x1.save/
 
     init_run     :     29.65s CPU     30.68s WALL (       1 calls)
     electrons    :   2283.50s CPU   2317.17s WALL (       1 calls)

     Called by init_run:
     wfcinit      :     28.61s CPU     29.56s WALL (       1 calls)
     wfcinit:atom :      0.22s CPU      0.38s WALL (      19 calls)
     wfcinit:wfcr :     27.21s CPU     27.81s WALL (      19 calls)
     potinit      :      0.31s CPU      0.32s WALL (       1 calls)
     hinit0       :      0.49s CPU      0.53s WALL (       1 calls)

     Called by electrons:
     c_bands      :   1976.26s CPU   2005.45s WALL (      21 calls)
     sum_band     :    302.50s CPU    306.71s WALL (      21 calls)
     v_of_rho     :      0.72s CPU      0.74s WALL (      22 calls)
     v_h          :      0.16s CPU      0.16s WALL (      22 calls)
     v_xc         :      0.56s CPU      0.58s WALL (      22 calls)
     mix_rho      :      3.65s CPU      3.70s WALL (      21 calls)

     Called by c_bands:
     init_us_2    :     10.51s CPU     10.60s WALL (     817 calls)
     init_us_2:cp :     10.50s CPU     10.59s WALL (     817 calls)
     cegterg      :   1736.23s CPU   1764.27s WALL (     411 calls)

     Called by sum_band:
     sum_band:wei :      0.01s CPU      0.01s WALL (      21 calls)
     sum_band:loo :    301.32s CPU    305.50s WALL (      21 calls)
     sum_band:buf :      3.19s CPU      3.24s WALL (     399 calls)
     sum_band:ini :      5.05s CPU      5.08s WALL (     399 calls)

     Called by *egterg:
     cdiaghg      :     22.87s CPU     26.25s WALL (    2666 calls)
     cegterg:over :     97.22s CPU     98.12s WALL (    2267 calls)
     cegterg:upda :    121.85s CPU    122.91s WALL (    2267 calls)
     cegterg:last :     99.85s CPU    100.46s WALL (     942 calls)
     cdiaghg:chol :      1.44s CPU      1.49s WALL (    2666 calls)
     cdiaghg:inve :      1.23s CPU      1.39s WALL (    2666 calls)
     cdiaghg:para :      2.31s CPU      2.42s WALL (    5332 calls)
     h_psi        :   1384.07s CPU   1406.02s WALL (    2697 calls)
     g_psi        :      4.77s CPU      4.82s WALL (    2267 calls)

     Called by h_psi:
     h_psi:calbec :    107.97s CPU    108.75s WALL (    2697 calls)
     vloc_psi     :   1165.50s CPU   1185.53s WALL (    2697 calls)
     add_vuspsi   :    102.36s CPU    102.97s WALL (    2697 calls)

     General routines
     calbec       :    107.95s CPU    108.74s WALL (    2697 calls)
     fft          :      0.80s CPU      0.85s WALL (     192 calls)
     ffts         :      0.33s CPU      0.34s WALL (      84 calls)
     fftw         :    923.89s CPU    940.80s WALL (  467600 calls)
 
     Parallel routines
 
     PWSCF        :  38m35.29s CPU  39m20.95s WALL

 
   This run was terminated on:  10:50:30  19Jan2024            

=------------------------------------------------------------------------------=
   JOB DONE.
=------------------------------------------------------------------------------=
