
     Program PWSCF v.7.0 starts on 19Jan2024 at 10:10:43 

     This program is part of the open-source Quantum ESPRESSO suite
     for quantum simulation of materials; please cite
         "P. Giannozzi et al., J. Phys.:Condens. Matter 21 395502 (2009);
         "P. Giannozzi et al., J. Phys.:Condens. Matter 29 465901 (2017);
         "P. Giannozzi et al., J. Chem. Phys. 152 154105 (2020);
          URL http://www.quantum-espresso.org", 
     in publications or presentations arising from this work. More details at
     http://www.quantum-espresso.org/quote

     Parallel version (MPI), running on    12 processors

     MPI processes distributed on     1 nodes
     R & G space division:  proc/nbgrp/npool/nimage =      12
     172364 MiB available memory on the printing compute node when the environment starts
 
     Reading input from cri3-exp-soc_90Ry_k18x18x1.scf.in

     Current dimensions of program PWSCF are:
     Max number of different atomic species (ntypx) = 10
     Max number of k-points (npk) =  40000
     Max angular momentum in pseudopotentials (lmaxx) =  4

     Subspace diagonalization in iterative solution of the eigenvalue problem:
     one sub-group per band group will be used
     scalapack distributed-memory algorithm (size of sub-group:  3*  3 procs)

 
     Parallelization info
     --------------------
     sticks:   dense  smooth     PW     G-vecs:    dense   smooth      PW
     Min         348     348     93                35048    35048    4841
     Max         349     349     94                35057    35057    4846
     Sum        4177    4177   1123               420595   420595   58117
 
     Using Slab Decomposition
 


     bravais-lattice index     =            4
     lattice parameter (alat)  =      12.9767  a.u.
     unit-cell volume          =    3645.8815 (a.u.)^3
     number of atoms/cell      =            8
     number of atomic types    =            2
     number of electrons       =        70.00
     number of Kohn-Sham states=           84
     kinetic-energy cutoff     =      90.0000  Ry
     charge density cutoff     =     360.0000  Ry
     scf convergence threshold =      1.0E-13
     mixing beta               =       0.7000
     number of iterations used =            8  plain     mixing
     Exchange-correlation= PZ
                           (   1   1   0   0   0   0   0)
     Noncollinear calculation with spin-orbit


     celldm(1)=  12.976749  celldm(2)=   0.000000  celldm(3)=   1.926523
     celldm(4)=   0.000000  celldm(5)=   0.000000  celldm(6)=   0.000000

     crystal axes: (cart. coord. in units of alat)
               a(1) = (   1.000000   0.000000   0.000000 )  
               a(2) = (  -0.500000   0.866025   0.000000 )  
               a(3) = (   0.000000   0.000000   1.926523 )  

     reciprocal axes: (cart. coord. in units 2 pi/alat)
               b(1) = (  1.000000  0.577350  0.000000 )  
               b(2) = (  0.000000  1.154701  0.000000 )  
               b(3) = (  0.000000  0.000000  0.519070 )  


     PseudoPot. # 1 for Cr read from file:
     ./Cr_Alejandro.upf
     MD5 check sum: 19f8874af457815d5c8e16c7b8c57f71
     Pseudo is Norm-conserving + core correction, Zval = 14.0
     Generated using ONCVPSP code by D. R. Hamann
     Using radial grid of 1600 points, 10 beta functions with: 
                l(1) =   0
                l(2) =   0
                l(3) =   1
                l(4) =   1
                l(5) =   1
                l(6) =   1
                l(7) =   2
                l(8) =   2
                l(9) =   2
               l(10) =   2

     PseudoPot. # 2 for I  read from file:
     ./I_Alejandro.upf
     MD5 check sum: d0d4d45a39a9ecd37d4d9deb6bd296a3
     Pseudo is Norm-conserving + core correction, Zval =  7.0
     Generated using ONCVPSP code by D. R. Hamann
     Using radial grid of 1196 points, 10 beta functions with: 
                l(1) =   0
                l(2) =   0
                l(3) =   1
                l(4) =   1
                l(5) =   1
                l(6) =   1
                l(7) =   2
                l(8) =   2
                l(9) =   2
               l(10) =   2

     atomic species   valence    mass     pseudopotential
        Cr            14.00    51.99000     Cr( 1.00)
        I              7.00   126.90000     I ( 1.00)

     12 Sym. Ops., with inversion, found


                                    s                        frac. trans.

      isym =  1     identity                                     

 Time Reversal            0
 cryst.   s( 1) = (     1          0          0      )
                  (     0          1          0      )
                  (     0          0          1      )

 cart.    s( 1) = (  1.0000000  0.0000000  0.0000000 )
                  (  0.0000000  1.0000000  0.0000000 )
                  (  0.0000000  0.0000000  1.0000000 )


      isym =  2     180 deg rotation - cart. axis [0,1,0]        

 Time Reversal            1
 cryst.   s( 2) = (    -1          0          0      )
                  (     1          1          0      )
                  (     0          0         -1      )

 cart.    s( 2) = ( -1.0000000  0.0000000  0.0000000 )
                  (  0.0000000  1.0000000  0.0000000 )
                  (  0.0000000  0.0000000 -1.0000000 )


      isym =  3     120 deg rotation - cryst. axis [0,0,1]       

 Time Reversal            0
 cryst.   s( 3) = (     0          1          0      )
                  (    -1         -1          0      )
                  (     0          0          1      )

 cart.    s( 3) = ( -0.5000000 -0.8660254  0.0000000 )
                  (  0.8660254 -0.5000000  0.0000000 )
                  (  0.0000000  0.0000000  1.0000000 )


      isym =  4     120 deg rotation - cryst. axis [0,0,-1]      

 Time Reversal            0
 cryst.   s( 4) = (    -1         -1          0      )
                  (     1          0          0      )
                  (     0          0          1      )

 cart.    s( 4) = ( -0.5000000  0.8660254  0.0000000 )
                  ( -0.8660254 -0.5000000  0.0000000 )
                  (  0.0000000  0.0000000  1.0000000 )


      isym =  5     180 deg rotation - cryst. axis [1,-1,0]      

 Time Reversal            1
 cryst.   s( 5) = (     0         -1          0      )
                  (    -1          0          0      )
                  (     0          0         -1      )

 cart.    s( 5) = (  0.5000000 -0.8660254  0.0000000 )
                  ( -0.8660254 -0.5000000  0.0000000 )
                  (  0.0000000  0.0000000 -1.0000000 )


      isym =  6     180 deg rotation - cryst. axis [2,1,0]       

 Time Reversal            1
 cryst.   s( 6) = (     1          1          0      )
                  (     0         -1          0      )
                  (     0          0         -1      )

 cart.    s( 6) = (  0.5000000  0.8660254  0.0000000 )
                  (  0.8660254 -0.5000000  0.0000000 )
                  (  0.0000000  0.0000000 -1.0000000 )


      isym =  7     inversion                                    

 Time Reversal            0
 cryst.   s( 7) = (    -1          0          0      )
                  (     0         -1          0      )
                  (     0          0         -1      )

 cart.    s( 7) = ( -1.0000000  0.0000000  0.0000000 )
                  (  0.0000000 -1.0000000  0.0000000 )
                  (  0.0000000  0.0000000 -1.0000000 )


      isym =  8     inv. 180 deg rotation - cart. axis [0,1,0]   

 Time Reversal            1
 cryst.   s( 8) = (     1          0          0      )
                  (    -1         -1          0      )
                  (     0          0          1      )

 cart.    s( 8) = (  1.0000000  0.0000000  0.0000000 )
                  (  0.0000000 -1.0000000  0.0000000 )
                  (  0.0000000  0.0000000  1.0000000 )


      isym =  9     inv. 120 deg rotation - cryst. axis [0,0,1]  

 Time Reversal            0
 cryst.   s( 9) = (     0         -1          0      )
                  (     1          1          0      )
                  (     0          0         -1      )

 cart.    s( 9) = (  0.5000000  0.8660254  0.0000000 )
                  ( -0.8660254  0.5000000  0.0000000 )
                  (  0.0000000  0.0000000 -1.0000000 )


      isym = 10     inv. 120 deg rotation - cryst. axis [0,0,-1] 

 Time Reversal            0
 cryst.   s(10) = (     1          1          0      )
                  (    -1          0          0      )
                  (     0          0         -1      )

 cart.    s(10) = (  0.5000000 -0.8660254  0.0000000 )
                  (  0.8660254  0.5000000  0.0000000 )
                  (  0.0000000  0.0000000 -1.0000000 )


      isym = 11     inv. 180 deg rotation - cryst. axis [1,-1,0] 

 Time Reversal            1
 cryst.   s(11) = (     0          1          0      )
                  (     1          0          0      )
                  (     0          0          1      )

 cart.    s(11) = ( -0.5000000  0.8660254  0.0000000 )
                  (  0.8660254  0.5000000  0.0000000 )
                  (  0.0000000  0.0000000  1.0000000 )


      isym = 12     inv. 180 deg rotation - cryst. axis [2,1,0]  

 Time Reversal            1
 cryst.   s(12) = (    -1         -1          0      )
                  (     0          1          0      )
                  (     0          0          1      )

 cart.    s(12) = ( -0.5000000 -0.8660254  0.0000000 )
                  ( -0.8660254  0.5000000  0.0000000 )
                  (  0.0000000  0.0000000  1.0000000 )


     the magnetic double point group is D_3d (-3m)  [S_6 (-3)   ]
     using the double point group S_6 (-3)   
     there are 12 classes and  6 irreducible representations
     the character table:

       E     -E    C3    -C3   C3^2  -C3^2  i    -i    S6^5  -S6^5 S6    -S6  
                                                                              
G_4+   1.00 -1.00  0.50 -0.50  0.50 -0.50  1.00 -1.00  0.50 -0.50  0.50 -0.50
G_5+   1.00 -1.00  0.50 -0.50  0.50 -0.50  1.00 -1.00  0.50 -0.50  0.50 -0.50
G_6+   1.00 -1.00 -1.00  1.00 -1.00  1.00  1.00 -1.00 -1.00  1.00 -1.00  1.00
G_4-   1.00 -1.00  0.50 -0.50  0.50 -0.50 -1.00  1.00 -0.50  0.50 -0.50  0.50
G_5-   1.00 -1.00  0.50 -0.50  0.50 -0.50 -1.00  1.00 -0.50  0.50 -0.50  0.50
G_6-   1.00 -1.00 -1.00  1.00 -1.00  1.00 -1.00  1.00  1.00 -1.00  1.00 -1.00

     imaginary part

       E     -E    C3    -C3   C3^2  -C3^2  i    -i    S6^5  -S6^5 S6    -S6  
                                                                              
G_4+   0.00  0.00  0.87 -0.87 -0.87  0.87  0.00  0.00  0.87 -0.87 -0.87  0.87
G_5+   0.00  0.00 -0.87  0.87  0.87 -0.87  0.00  0.00 -0.87  0.87  0.87 -0.87
G_6+   0.00  0.00  0.00  0.00  0.00  0.00  0.00  0.00  0.00  0.00  0.00  0.00
G_4-   0.00  0.00  0.87 -0.87 -0.87  0.87  0.00  0.00 -0.87  0.87  0.87 -0.87
G_5-   0.00  0.00 -0.87  0.87  0.87 -0.87  0.00  0.00  0.87 -0.87 -0.87  0.87
G_6-   0.00  0.00  0.00  0.00  0.00  0.00  0.00  0.00  0.00  0.00  0.00  0.00

     the symmetry operations in each class and the name of the first element:

     E             1
          identity                                               
     -E           -1
          identity E                                             
     C3            2
          120 deg rotation - cryst. axis [0,0,1]                 
     -C3          -2
          120 deg rotation - cryst. axis [0,0,1] E               
     C3^2          3
          120 deg rotation - cryst. axis [0,0,-1]                
     -C3^2        -3
          120 deg rotation - cryst. axis [0,0,-1] E              
      i            4
          inversion                                              
     -i           -4
          inversion E                                            
     S6^5          5
          inv. 120 deg rotation - cryst. axis [0,0,1]            
     -S6^5        -5
          inv. 120 deg rotation - cryst. axis [0,0,1] E          
     S6            6
          inv. 120 deg rotation - cryst. axis [0,0,-1]           
     -S6          -6
          inv. 120 deg rotation - cryst. axis [0,0,-1] E         

   Cartesian axes

     site n.     atom                  positions (alat units)
         1           Cr  tau(   1) = (   0.5000000   0.2886751   0.0000000  )
         2           Cr  tau(   2) = (   0.0000000   0.5773503   0.0000000  )
         3           I   tau(   3) = (   0.3246775   0.5623579   0.2277694  )
         4           I   tau(   4) = (  -0.1753225   0.3036675   0.2277694  )
         5           I   tau(   5) = (   0.3506450   0.0000000   0.2277694  )
         6           I   tau(   6) = (   0.1753225   0.3036675  -0.2277694  )
         7           I   tau(   7) = (   0.6493550   0.0000000  -0.2277694  )
         8           I   tau(   8) = (  -0.3246775   0.5623579  -0.2277694  )

   Crystallographic axes

     site n.     atom                  positions (cryst. coord.)
         1           Cr  tau(   1) = (  0.6666667  0.3333333  0.0000000  )
         2           Cr  tau(   2) = (  0.3333333  0.6666667  0.0000000  )
         3           I   tau(   3) = (  0.6493550  0.6493550  0.1182283  )
         4           I   tau(   4) = (  0.0000000  0.3506450  0.1182283  )
         5           I   tau(   5) = (  0.3506450  0.0000000  0.1182283  )
         6           I   tau(   6) = (  0.3506450  0.3506450 -0.1182283  )
         7           I   tau(   7) = (  0.6493550  0.0000000 -0.1182283  )
         8           I   tau(   8) = (  0.0000000  0.6493550 -0.1182283  )

     number of k points=    37  Gaussian smearing, width (Ry)=  0.0050
                       cart. coord. in units 2pi/alat
        k(    1) = (   0.0000000   0.0000000   0.0000000), wk =   0.0030864
        k(    2) = (   0.0000000   0.0641500   0.0000000), wk =   0.0185185
        k(    3) = (   0.0000000   0.1283001   0.0000000), wk =   0.0185185
        k(    4) = (   0.0000000   0.1924501   0.0000000), wk =   0.0185185
        k(    5) = (   0.0000000   0.2566001   0.0000000), wk =   0.0185185
        k(    6) = (   0.0000000   0.3207501   0.0000000), wk =   0.0185185
        k(    7) = (   0.0000000   0.3849002   0.0000000), wk =   0.0185185
        k(    8) = (   0.0000000   0.4490502   0.0000000), wk =   0.0185185
        k(    9) = (   0.0000000   0.5132002   0.0000000), wk =   0.0185185
        k(   10) = (   0.0000000  -0.5773503   0.0000000), wk =   0.0092593
        k(   11) = (   0.0555556   0.0962250   0.0000000), wk =   0.0185185
        k(   12) = (   0.0555556   0.1603751   0.0000000), wk =   0.0370370
        k(   13) = (   0.0555556   0.2245251   0.0000000), wk =   0.0370370
        k(   14) = (   0.0555556   0.2886751   0.0000000), wk =   0.0370370
        k(   15) = (   0.0555556   0.3528252   0.0000000), wk =   0.0370370
        k(   16) = (   0.0555556   0.4169752   0.0000000), wk =   0.0370370
        k(   17) = (   0.0555556   0.4811252   0.0000000), wk =   0.0370370
        k(   18) = (   0.0555556   0.5452753   0.0000000), wk =   0.0370370
        k(   19) = (   0.1111111   0.1924501   0.0000000), wk =   0.0185185
        k(   20) = (   0.1111111   0.2566001   0.0000000), wk =   0.0370370
        k(   21) = (   0.1111111   0.3207501   0.0000000), wk =   0.0370370
        k(   22) = (   0.1111111   0.3849002   0.0000000), wk =   0.0370370
        k(   23) = (   0.1111111   0.4490502   0.0000000), wk =   0.0370370
        k(   24) = (   0.1111111   0.5132002   0.0000000), wk =   0.0370370
        k(   25) = (   0.1111111   0.5773503   0.0000000), wk =   0.0185185
        k(   26) = (   0.1666667   0.2886751   0.0000000), wk =   0.0185185
        k(   27) = (   0.1666667   0.3528252   0.0000000), wk =   0.0370370
        k(   28) = (   0.1666667   0.4169752   0.0000000), wk =   0.0370370
        k(   29) = (   0.1666667   0.4811252   0.0000000), wk =   0.0370370
        k(   30) = (   0.1666667   0.5452753   0.0000000), wk =   0.0370370
        k(   31) = (   0.2222222   0.3849002   0.0000000), wk =   0.0185185
        k(   32) = (   0.2222222   0.4490502   0.0000000), wk =   0.0370370
        k(   33) = (   0.2222222   0.5132002   0.0000000), wk =   0.0370370
        k(   34) = (   0.2222222   0.5773503   0.0000000), wk =   0.0185185
        k(   35) = (   0.2777778   0.4811252   0.0000000), wk =   0.0185185
        k(   36) = (   0.2777778   0.5452753   0.0000000), wk =   0.0370370
        k(   37) = (   0.3333333   0.5773503   0.0000000), wk =   0.0061728

                       cryst. coord.
        k(    1) = (   0.0000000   0.0000000   0.0000000), wk =   0.0030864
        k(    2) = (   0.0000000   0.0555556   0.0000000), wk =   0.0185185
        k(    3) = (   0.0000000   0.1111111   0.0000000), wk =   0.0185185
        k(    4) = (   0.0000000   0.1666667   0.0000000), wk =   0.0185185
        k(    5) = (   0.0000000   0.2222222   0.0000000), wk =   0.0185185
        k(    6) = (   0.0000000   0.2777778   0.0000000), wk =   0.0185185
        k(    7) = (   0.0000000   0.3333333   0.0000000), wk =   0.0185185
        k(    8) = (   0.0000000   0.3888889   0.0000000), wk =   0.0185185
        k(    9) = (   0.0000000   0.4444444   0.0000000), wk =   0.0185185
        k(   10) = (   0.0000000  -0.5000000   0.0000000), wk =   0.0092593
        k(   11) = (   0.0555556   0.0555556   0.0000000), wk =   0.0185185
        k(   12) = (   0.0555556   0.1111111   0.0000000), wk =   0.0370370
        k(   13) = (   0.0555556   0.1666667   0.0000000), wk =   0.0370370
        k(   14) = (   0.0555556   0.2222222   0.0000000), wk =   0.0370370
        k(   15) = (   0.0555556   0.2777778   0.0000000), wk =   0.0370370
        k(   16) = (   0.0555556   0.3333333   0.0000000), wk =   0.0370370
        k(   17) = (   0.0555556   0.3888889   0.0000000), wk =   0.0370370
        k(   18) = (   0.0555556   0.4444444   0.0000000), wk =   0.0370370
        k(   19) = (   0.1111111   0.1111111   0.0000000), wk =   0.0185185
        k(   20) = (   0.1111111   0.1666667   0.0000000), wk =   0.0370370
        k(   21) = (   0.1111111   0.2222222   0.0000000), wk =   0.0370370
        k(   22) = (   0.1111111   0.2777778   0.0000000), wk =   0.0370370
        k(   23) = (   0.1111111   0.3333333   0.0000000), wk =   0.0370370
        k(   24) = (   0.1111111   0.3888889   0.0000000), wk =   0.0370370
        k(   25) = (   0.1111111   0.4444444   0.0000000), wk =   0.0185185
        k(   26) = (   0.1666667   0.1666667   0.0000000), wk =   0.0185185
        k(   27) = (   0.1666667   0.2222222   0.0000000), wk =   0.0370370
        k(   28) = (   0.1666667   0.2777778   0.0000000), wk =   0.0370370
        k(   29) = (   0.1666667   0.3333333   0.0000000), wk =   0.0370370
        k(   30) = (   0.1666667   0.3888889   0.0000000), wk =   0.0370370
        k(   31) = (   0.2222222   0.2222222   0.0000000), wk =   0.0185185
        k(   32) = (   0.2222222   0.2777778   0.0000000), wk =   0.0370370
        k(   33) = (   0.2222222   0.3333333   0.0000000), wk =   0.0370370
        k(   34) = (   0.2222222   0.3888889   0.0000000), wk =   0.0185185
        k(   35) = (   0.2777778   0.2777778   0.0000000), wk =   0.0185185
        k(   36) = (   0.2777778   0.3333333   0.0000000), wk =   0.0370370
        k(   37) = (   0.3333333   0.3333333   0.0000000), wk =   0.0061728

     Dense  grid:   420595 G-vectors     FFT dimensions: (  80,  80, 160)

     Dynamical RAM for                 wfc:      11.23 MB

     Dynamical RAM for     wfc (w. buffer):     426.67 MB

     Dynamical RAM for           str. fact:       1.07 MB

     Dynamical RAM for           local pot:       0.00 MB

     Dynamical RAM for          nlocal pot:      18.18 MB

     Dynamical RAM for                qrad:       7.98 MB

     Dynamical RAM for          rho,v,vnew:      14.62 MB

     Dynamical RAM for               rhoin:       4.87 MB

     Dynamical RAM for            rho*nmix:      34.23 MB

     Dynamical RAM for           G-vectors:       2.27 MB

     Dynamical RAM for          h,s,v(r/c):       0.14 MB

     Dynamical RAM for          <psi|beta>:       0.70 MB

     Dynamical RAM for                 psi:      22.46 MB

     Dynamical RAM for                hpsi:      22.46 MB

     Dynamical RAM for      wfcinit/wfcrot:      17.82 MB

     Estimated static dynamical RAM per process >     482.73 MB

     Estimated max dynamical RAM per process >     562.71 MB

     Estimated total dynamical RAM >       6.59 GB
 ----2D----2D----2D----2D----2D----2D----2D----2D----2D----2D----2D----2D
  The code is running with the 2D cutoff
  Please refer to:
  Sohier, T., Calandra, M., & Mauri, F. (2017), 
  Density functional perturbation theory for gated two-dimensional heterostructu
 res:
  Theoretical developments and application to flexural phonons in graphene.
  Physical Review B, 96(7), 75448. https://doi.org/10.1103/PhysRevB.96.075448
 ----2D----2D----2D----2D----2D----2D----2D----2D----2D----2D----2D----2D
     Generating pointlists ...
     new r_m :   0.1637 (alat units)  2.1245 (a.u.) for type    1
     new r_m :   0.1637 (alat units)  2.1245 (a.u.) for type    2

     Initial potential from superposition of free atoms

     starting charge      69.9974, renormalised to      70.0000

     negative rho (up, down):  1.082E-07 1.489E-03

 ==============================================================================
     atom number    1 relative position :    0.5000   0.2887   0.0000
     charge :    12.703775  (integrated on a sphere of radius 0.164)
     magnetization :          0.000000    0.000000   12.368939
     magnetization/charge:    0.000000    0.000000    0.973643
     polar coord.: r, theta, phi [deg] :    12.368939    0.000000  360.000000

 ==============================================================================

 ==============================================================================
     atom number    2 relative position :    0.0000   0.5774   0.0000
     charge :    12.703775  (integrated on a sphere of radius 0.164)
     magnetization :          0.000000    0.000000   12.368939
     magnetization/charge:    0.000000    0.000000    0.973643
     polar coord.: r, theta, phi [deg] :    12.368939    0.000000  360.000000

 ==============================================================================

 ==============================================================================
     atom number    3 relative position :    0.3247   0.5624   0.2278
     charge :     4.088844  (integrated on a sphere of radius 0.164)
     magnetization :          0.000000    0.000000    0.080707
     magnetization/charge:    0.000000    0.000000    0.019738
     polar coord.: r, theta, phi [deg] :     0.080707    0.000000  360.000000

 ==============================================================================

 ==============================================================================
     atom number    4 relative position :   -0.1753   0.3037   0.2278
     charge :     4.088844  (integrated on a sphere of radius 0.164)
     magnetization :          0.000000    0.000000    0.080707
     magnetization/charge:    0.000000    0.000000    0.019738
     polar coord.: r, theta, phi [deg] :     0.080707    0.000000  360.000000

 ==============================================================================

 ==============================================================================
     atom number    5 relative position :    0.3506   0.0000   0.2278
     charge :     4.088844  (integrated on a sphere of radius 0.164)
     magnetization :          0.000000    0.000000    0.080707
     magnetization/charge:    0.000000    0.000000    0.019738
     polar coord.: r, theta, phi [deg] :     0.080707    0.000000  360.000000

 ==============================================================================

 ==============================================================================
     atom number    6 relative position :    0.1753   0.3037  -0.2278
     charge :     4.088844  (integrated on a sphere of radius 0.164)
     magnetization :          0.000000    0.000000    0.080707
     magnetization/charge:    0.000000    0.000000    0.019738
     polar coord.: r, theta, phi [deg] :     0.080707    0.000000  360.000000

 ==============================================================================

 ==============================================================================
     atom number    7 relative position :    0.6494   0.0000  -0.2278
     charge :     4.088844  (integrated on a sphere of radius 0.164)
     magnetization :          0.000000    0.000000    0.080707
     magnetization/charge:    0.000000    0.000000    0.019738
     polar coord.: r, theta, phi [deg] :     0.080707    0.000000  360.000000

 ==============================================================================

 ==============================================================================
     atom number    8 relative position :   -0.3247   0.5624  -0.2278
     charge :     4.088844  (integrated on a sphere of radius 0.164)
     magnetization :          0.000000    0.000000    0.080707
     magnetization/charge:    0.000000    0.000000    0.019738
     polar coord.: r, theta, phi [deg] :     0.080707    0.000000  360.000000

 ==============================================================================
     Starting wfcs are   88 randomized atomic wfcs

     total cpu time spent up to now is       95.4 secs

     Self-consistent Calculation

     iteration #  1     ecut=    90.00 Ry     beta= 0.70
     Davidson diagonalization with overlap

---- Real-time Memory Report at c_bands before calling an iterative solver
           641 MiB given to the printing process from OS
             0 MiB allocation reported by mallinfo(arena+hblkhd)
        162224 MiB available memory on the node where the printing process lives
------------------
     c_bands:  5 eigenvalues not converged
     c_bands:  1 eigenvalues not converged
     c_bands:  2 eigenvalues not converged
     c_bands:  2 eigenvalues not converged
     c_bands:  1 eigenvalues not converged
     c_bands:  4 eigenvalues not converged
     c_bands:  1 eigenvalues not converged
     c_bands:  2 eigenvalues not converged
     c_bands:  1 eigenvalues not converged
     c_bands:  1 eigenvalues not converged
     c_bands:  5 eigenvalues not converged
     c_bands:  2 eigenvalues not converged
     c_bands:  1 eigenvalues not converged
     c_bands:  2 eigenvalues not converged
     c_bands:  1 eigenvalues not converged
     c_bands:  1 eigenvalues not converged
     c_bands:  4 eigenvalues not converged
     c_bands:  5 eigenvalues not converged
     c_bands:  1 eigenvalues not converged
     c_bands:  5 eigenvalues not converged
     c_bands:  5 eigenvalues not converged
     c_bands:  4 eigenvalues not converged
     c_bands:  5 eigenvalues not converged
     c_bands:  3 eigenvalues not converged
     ethr =  5.00E-06,  avg # of iterations = 32.8

     negative rho (up, down):  2.474E-08 1.249E-03

     total cpu time spent up to now is     1222.9 secs

     total energy              =    -511.41400433 Ry
     estimated scf accuracy    <       4.45187747 Ry

     total magnetization       =     0.00    -0.00     6.30 Bohr mag/cell
     absolute magnetization    =    10.90 Bohr mag/cell

     iteration #  2     ecut=    90.00 Ry     beta= 0.70
     Davidson diagonalization with overlap

---- Real-time Memory Report at c_bands before calling an iterative solver
           731 MiB given to the printing process from OS
             0 MiB allocation reported by mallinfo(arena+hblkhd)
        161627 MiB available memory on the node where the printing process lives
------------------
     ethr =  6.36E-03,  avg # of iterations =  6.9

     negative rho (up, down):  0.000E+00 9.766E-07

     total cpu time spent up to now is     1432.4 secs

     total energy              =    -511.78783277 Ry
     estimated scf accuracy    <       0.59527331 Ry

     total magnetization       =    -0.00    -0.00     6.29 Bohr mag/cell
     absolute magnetization    =    10.66 Bohr mag/cell

     iteration #  3     ecut=    90.00 Ry     beta= 0.70
     Davidson diagonalization with overlap

---- Real-time Memory Report at c_bands before calling an iterative solver
           749 MiB given to the printing process from OS
             0 MiB allocation reported by mallinfo(arena+hblkhd)
        161181 MiB available memory on the node where the printing process lives
------------------
     c_bands:  4 eigenvalues not converged
     c_bands:  2 eigenvalues not converged
     c_bands:  2 eigenvalues not converged
     c_bands:  4 eigenvalues not converged
     c_bands:  2 eigenvalues not converged
     c_bands:  2 eigenvalues not converged
     c_bands:  2 eigenvalues not converged
     c_bands:  2 eigenvalues not converged
     c_bands:  2 eigenvalues not converged
     c_bands:  3 eigenvalues not converged
     c_bands:  2 eigenvalues not converged
     c_bands:  1 eigenvalues not converged
     c_bands:  1 eigenvalues not converged
     ethr =  8.50E-04,  avg # of iterations = 11.9

     total cpu time spent up to now is     1712.2 secs

     total energy              =    -511.65910638 Ry
     estimated scf accuracy    <       3.49596330 Ry

     total magnetization       =     0.00    -0.00     6.00 Bohr mag/cell
     absolute magnetization    =     6.69 Bohr mag/cell

     iteration #  4     ecut=    90.00 Ry     beta= 0.70
     Davidson diagonalization with overlap

---- Real-time Memory Report at c_bands before calling an iterative solver
           754 MiB given to the printing process from OS
             0 MiB allocation reported by mallinfo(arena+hblkhd)
        161042 MiB available memory on the node where the printing process lives
------------------
     c_bands:  4 eigenvalues not converged
     c_bands:  1 eigenvalues not converged
     c_bands:  2 eigenvalues not converged
     c_bands:  3 eigenvalues not converged
     c_bands:  1 eigenvalues not converged
     c_bands:  4 eigenvalues not converged
     c_bands:  2 eigenvalues not converged
     c_bands:  1 eigenvalues not converged
     c_bands:  5 eigenvalues not converged
     c_bands:  2 eigenvalues not converged
     c_bands:  1 eigenvalues not converged
     c_bands:  4 eigenvalues not converged
     ethr =  8.50E-04,  avg # of iterations = 18.0

     total cpu time spent up to now is     1966.5 secs

     total energy              =    -512.09294797 Ry
     estimated scf accuracy    <       0.05841473 Ry

     total magnetization       =     0.00    -0.00     6.06 Bohr mag/cell
     absolute magnetization    =     7.92 Bohr mag/cell

     iteration #  5     ecut=    90.00 Ry     beta= 0.70
     Davidson diagonalization with overlap

---- Real-time Memory Report at c_bands before calling an iterative solver
           762 MiB given to the printing process from OS
             0 MiB allocation reported by mallinfo(arena+hblkhd)
        162777 MiB available memory on the node where the printing process lives
------------------
     c_bands:  1 eigenvalues not converged
     ethr =  8.34E-05,  avg # of iterations =  7.4

     total cpu time spent up to now is     2131.2 secs

     total energy              =    -512.10789582 Ry
     estimated scf accuracy    <       0.00746140 Ry

     total magnetization       =     0.00    -0.00     6.04 Bohr mag/cell
     absolute magnetization    =     7.64 Bohr mag/cell

     iteration #  6     ecut=    90.00 Ry     beta= 0.70
     Davidson diagonalization with overlap

---- Real-time Memory Report at c_bands before calling an iterative solver
           772 MiB given to the printing process from OS
             0 MiB allocation reported by mallinfo(arena+hblkhd)
        162706 MiB available memory on the node where the printing process lives
------------------
     ethr =  1.07E-05,  avg # of iterations =  2.9

     total cpu time spent up to now is     2217.7 secs

     total energy              =    -512.11026114 Ry
     estimated scf accuracy    <       0.00119738 Ry

     total magnetization       =    -0.00     0.00     6.04 Bohr mag/cell
     absolute magnetization    =     7.37 Bohr mag/cell

     iteration #  7     ecut=    90.00 Ry     beta= 0.70
     Davidson diagonalization with overlap

---- Real-time Memory Report at c_bands before calling an iterative solver
           781 MiB given to the printing process from OS
             0 MiB allocation reported by mallinfo(arena+hblkhd)
        164542 MiB available memory on the node where the printing process lives
------------------
     ethr =  1.71E-06,  avg # of iterations =  4.2

     total cpu time spent up to now is     2315.9 secs

     total energy              =    -512.11065918 Ry
     estimated scf accuracy    <       0.00028626 Ry

     total magnetization       =     0.00    -0.00     6.03 Bohr mag/cell
     absolute magnetization    =     7.24 Bohr mag/cell

     iteration #  8     ecut=    90.00 Ry     beta= 0.70
     Davidson diagonalization with overlap

---- Real-time Memory Report at c_bands before calling an iterative solver
           796 MiB given to the printing process from OS
             0 MiB allocation reported by mallinfo(arena+hblkhd)
        164460 MiB available memory on the node where the printing process lives
------------------
     ethr =  4.09E-07,  avg # of iterations =  3.0

     total cpu time spent up to now is     2407.7 secs

     total energy              =    -512.11077414 Ry
     estimated scf accuracy    <       0.00003153 Ry

     total magnetization       =     0.00     0.00     6.03 Bohr mag/cell
     absolute magnetization    =     7.16 Bohr mag/cell

     iteration #  9     ecut=    90.00 Ry     beta= 0.70
     Davidson diagonalization with overlap

---- Real-time Memory Report at c_bands before calling an iterative solver
           803 MiB given to the printing process from OS
             0 MiB allocation reported by mallinfo(arena+hblkhd)
        164421 MiB available memory on the node where the printing process lives
------------------
     ethr =  4.50E-08,  avg # of iterations =  4.2

     total cpu time spent up to now is     2495.2 secs

     total energy              =    -512.11078067 Ry
     estimated scf accuracy    <       0.00000138 Ry

     total magnetization       =     0.00    -0.00     6.03 Bohr mag/cell
     absolute magnetization    =     7.17 Bohr mag/cell

     iteration # 10     ecut=    90.00 Ry     beta= 0.70
     Davidson diagonalization with overlap

---- Real-time Memory Report at c_bands before calling an iterative solver
           807 MiB given to the printing process from OS
             0 MiB allocation reported by mallinfo(arena+hblkhd)
        164353 MiB available memory on the node where the printing process lives
------------------
     ethr =  1.97E-09,  avg # of iterations =  4.9

     total cpu time spent up to now is     2604.3 secs

     total energy              =    -512.11078122 Ry
     estimated scf accuracy    <       0.00000053 Ry

     total magnetization       =     0.00     0.00     6.03 Bohr mag/cell
     absolute magnetization    =     7.16 Bohr mag/cell

     iteration # 11     ecut=    90.00 Ry     beta= 0.70
     Davidson diagonalization with overlap

---- Real-time Memory Report at c_bands before calling an iterative solver
           815 MiB given to the printing process from OS
             0 MiB allocation reported by mallinfo(arena+hblkhd)
        164312 MiB available memory on the node where the printing process lives
------------------
     ethr =  7.59E-10,  avg # of iterations =  2.1

     total cpu time spent up to now is     2693.2 secs

     total energy              =    -512.11078140 Ry
     estimated scf accuracy    <       0.00000007 Ry

     total magnetization       =     0.00    -0.00     6.03 Bohr mag/cell
     absolute magnetization    =     7.16 Bohr mag/cell

     iteration # 12     ecut=    90.00 Ry     beta= 0.70
     Davidson diagonalization with overlap

---- Real-time Memory Report at c_bands before calling an iterative solver
           816 MiB given to the printing process from OS
             0 MiB allocation reported by mallinfo(arena+hblkhd)
        164308 MiB available memory on the node where the printing process lives
------------------
     ethr =  9.51E-11,  avg # of iterations =  4.6

     total cpu time spent up to now is     2791.5 secs

     total energy              =    -512.11078141 Ry
     estimated scf accuracy    <          9.6E-09 Ry

     total magnetization       =    -0.00    -0.00     6.03 Bohr mag/cell
     absolute magnetization    =     7.16 Bohr mag/cell

     iteration # 13     ecut=    90.00 Ry     beta= 0.70
     Davidson diagonalization with overlap

---- Real-time Memory Report at c_bands before calling an iterative solver
           819 MiB given to the printing process from OS
             0 MiB allocation reported by mallinfo(arena+hblkhd)
        164304 MiB available memory on the node where the printing process lives
------------------
     ethr =  1.38E-11,  avg # of iterations =  2.6

     total cpu time spent up to now is     2886.0 secs

     total energy              =    -512.11078141 Ry
     estimated scf accuracy    <          5.9E-10 Ry

     total magnetization       =     0.00    -0.00     6.03 Bohr mag/cell
     absolute magnetization    =     7.16 Bohr mag/cell

     iteration # 14     ecut=    90.00 Ry     beta= 0.70
     Davidson diagonalization with overlap

---- Real-time Memory Report at c_bands before calling an iterative solver
           820 MiB given to the printing process from OS
             0 MiB allocation reported by mallinfo(arena+hblkhd)
        161865 MiB available memory on the node where the printing process lives
------------------
     ethr =  8.47E-13,  avg # of iterations =  4.4

     total cpu time spent up to now is     3178.1 secs

     total energy              =    -512.11078141 Ry
     estimated scf accuracy    <          8.4E-11 Ry

     total magnetization       =     0.00     0.00     6.03 Bohr mag/cell
     absolute magnetization    =     7.16 Bohr mag/cell

     iteration # 15     ecut=    90.00 Ry     beta= 0.70
     Davidson diagonalization with overlap

---- Real-time Memory Report at c_bands before calling an iterative solver
           822 MiB given to the printing process from OS
             0 MiB allocation reported by mallinfo(arena+hblkhd)
        147819 MiB available memory on the node where the printing process lives
------------------
     ethr =  1.20E-13,  avg # of iterations =  3.5

     total cpu time spent up to now is     3366.0 secs

     total energy              =    -512.11078141 Ry
     estimated scf accuracy    <          8.4E-12 Ry

     total magnetization       =     0.00    -0.00     6.03 Bohr mag/cell
     absolute magnetization    =     7.16 Bohr mag/cell

     iteration # 16     ecut=    90.00 Ry     beta= 0.70
     Davidson diagonalization with overlap

---- Real-time Memory Report at c_bands before calling an iterative solver
           822 MiB given to the printing process from OS
             0 MiB allocation reported by mallinfo(arena+hblkhd)
        148874 MiB available memory on the node where the printing process lives
------------------
     ethr =  1.00E-13,  avg # of iterations =  1.0

     total cpu time spent up to now is     3492.0 secs

     total energy              =    -512.11078141 Ry
     estimated scf accuracy    <          8.5E-13 Ry

     total magnetization       =     0.00    -0.00     6.03 Bohr mag/cell
     absolute magnetization    =     7.16 Bohr mag/cell

     iteration # 17     ecut=    90.00 Ry     beta= 0.70
     Davidson diagonalization with overlap

---- Real-time Memory Report at c_bands before calling an iterative solver
           822 MiB given to the printing process from OS
             0 MiB allocation reported by mallinfo(arena+hblkhd)
        148767 MiB available memory on the node where the printing process lives
------------------
     ethr =  1.00E-13,  avg # of iterations =  1.0

     total cpu time spent up to now is     3598.4 secs

     total energy              =    -512.11078141 Ry
     estimated scf accuracy    <          6.8E-13 Ry

     total magnetization       =     0.00    -0.00     6.03 Bohr mag/cell
     absolute magnetization    =     7.16 Bohr mag/cell

     iteration # 18     ecut=    90.00 Ry     beta= 0.70
     Davidson diagonalization with overlap

---- Real-time Memory Report at c_bands before calling an iterative solver
           822 MiB given to the printing process from OS
             0 MiB allocation reported by mallinfo(arena+hblkhd)
        150892 MiB available memory on the node where the printing process lives
------------------
     ethr =  1.00E-13,  avg # of iterations =  1.0

     total cpu time spent up to now is     3672.7 secs

     total energy              =    -512.11078142 Ry
     estimated scf accuracy    <          1.9E-13 Ry

     total magnetization       =    -0.00    -0.00     6.03 Bohr mag/cell
     absolute magnetization    =     7.16 Bohr mag/cell

     iteration # 19     ecut=    90.00 Ry     beta= 0.70
     Davidson diagonalization with overlap

---- Real-time Memory Report at c_bands before calling an iterative solver
           822 MiB given to the printing process from OS
             0 MiB allocation reported by mallinfo(arena+hblkhd)
        151188 MiB available memory on the node where the printing process lives
------------------
     ethr =  1.00E-13,  avg # of iterations =  1.0

     total cpu time spent up to now is     3746.9 secs

     total energy              =    -512.11078142 Ry
     estimated scf accuracy    <          1.1E-13 Ry

     total magnetization       =     0.00    -0.00     6.03 Bohr mag/cell
     absolute magnetization    =     7.16 Bohr mag/cell

     iteration # 20     ecut=    90.00 Ry     beta= 0.70
     Davidson diagonalization with overlap

---- Real-time Memory Report at c_bands before calling an iterative solver
           822 MiB given to the printing process from OS
             0 MiB allocation reported by mallinfo(arena+hblkhd)
        150497 MiB available memory on the node where the printing process lives
------------------
     ethr =  1.00E-13,  avg # of iterations =  1.0

 ==============================================================================
     atom number    1 relative position :    0.5000   0.2887   0.0000
     charge :    12.442655  (integrated on a sphere of radius 0.164)
     magnetization :         -0.000000   -0.000000    2.945284
     magnetization/charge:   -0.000000   -0.000000    0.236709
     polar coord.: r, theta, phi [deg] :     2.945284    0.000000  360.000000

 ==============================================================================

 ==============================================================================
     atom number    2 relative position :    0.0000   0.5774   0.0000
     charge :    12.442655  (integrated on a sphere of radius 0.164)
     magnetization :         -0.000000    0.000000    2.945284
     magnetization/charge:   -0.000000    0.000000    0.236709
     polar coord.: r, theta, phi [deg] :     2.945284    0.000000  360.000000

 ==============================================================================

 ==============================================================================
     atom number    3 relative position :    0.3247   0.5624   0.2278
     charge :     4.119849  (integrated on a sphere of radius 0.164)
     magnetization :         -0.000545   -0.000945   -0.050520
     magnetization/charge:   -0.000132   -0.000229   -0.012263
     polar coord.: r, theta, phi [deg] :     0.050531  178.763127 -120.000000

 ==============================================================================

 ==============================================================================
     atom number    4 relative position :   -0.1753   0.3037   0.2278
     charge :     4.119849  (integrated on a sphere of radius 0.164)
     magnetization :         -0.000545    0.000945   -0.050520
     magnetization/charge:   -0.000132    0.000229   -0.012263
     polar coord.: r, theta, phi [deg] :     0.050531  178.763127  120.000000

 ==============================================================================

 ==============================================================================
     atom number    5 relative position :    0.3506   0.0000   0.2278
     charge :     4.119849  (integrated on a sphere of radius 0.164)
     magnetization :          0.001091   -0.000000   -0.050520
     magnetization/charge:    0.000265   -0.000000   -0.012263
     polar coord.: r, theta, phi [deg] :     0.050531  178.763127    0.000000

 ==============================================================================

 ==============================================================================
     atom number    6 relative position :    0.1753   0.3037  -0.2278
     charge :     4.119849  (integrated on a sphere of radius 0.164)
     magnetization :         -0.000545   -0.000945   -0.050520
     magnetization/charge:   -0.000132   -0.000229   -0.012263
     polar coord.: r, theta, phi [deg] :     0.050531  178.763127 -120.000000

 ==============================================================================

 ==============================================================================
     atom number    7 relative position :    0.6494   0.0000  -0.2278
     charge :     4.119849  (integrated on a sphere of radius 0.164)
     magnetization :          0.001091   -0.000000   -0.050520
     magnetization/charge:    0.000265   -0.000000   -0.012263
     polar coord.: r, theta, phi [deg] :     0.050531  178.763127    0.000000

 ==============================================================================

 ==============================================================================
     atom number    8 relative position :   -0.3247   0.5624  -0.2278
     charge :     4.119849  (integrated on a sphere of radius 0.164)
     magnetization :         -0.000545    0.000945   -0.050520
     magnetization/charge:   -0.000132    0.000229   -0.012263
     polar coord.: r, theta, phi [deg] :     0.050531  178.763127  120.000000

 ==============================================================================

     total cpu time spent up to now is     3821.0 secs

     End of self-consistent calculation

          k = 0.0000 0.0000 0.0000 ( 52593 PWs)   bands (ev):

   -77.3267 -77.3265 -74.3850 -74.3847 -49.4764 -49.4737 -49.1588 -49.1579
   -48.7151 -48.7120 -46.3718 -46.3683 -46.0773 -46.0760 -45.7718 -45.7678
   -18.4844 -18.4665 -17.7601 -17.7414 -17.4529 -17.4507 -17.4381 -17.4359
   -17.3591 -17.3584 -17.3437 -17.3430 -10.1423  -9.8994  -9.6505  -9.4540
    -9.3031  -9.2823  -9.1753  -9.0803  -9.0418  -9.0031  -8.7993  -8.6608
    -8.5799  -8.5130  -8.2563  -8.1336  -8.1161  -7.8897  -7.8671  -7.7364
    -7.6356  -7.5980  -7.5245  -7.3059  -7.2703  -7.1465  -6.9901  -6.9159
    -6.6627  -6.6016  -6.3935  -6.3934  -6.1421  -6.0683  -6.0567  -6.0379
    -5.9704  -5.9628  -5.8397  -5.6670  -5.3420  -5.2572  -4.4201  -4.3550
    -4.1427  -3.7717  -3.7373  -3.7369  -3.7110  -3.6450  -3.4143  -3.3616
    -2.8680  -2.8364  -2.6822  -2.4703

     occupation numbers 
     1.0000   1.0000   1.0000   1.0000   1.0000   1.0000   1.0000   1.0000
     1.0000   1.0000   1.0000   1.0000   1.0000   1.0000   1.0000   1.0000
     1.0000   1.0000   1.0000   1.0000   1.0000   1.0000   1.0000   1.0000
     1.0000   1.0000   1.0000   1.0000   1.0000   1.0000   1.0000   1.0000
     1.0000   1.0000   1.0000   1.0000   1.0000   1.0000   1.0000   1.0000
     1.0000   1.0000   1.0000   1.0000   1.0000   1.0000   1.0000   1.0000
     1.0000   1.0000   1.0000   1.0000   1.0000   1.0000   1.0000   1.0000
     1.0000   1.0000   1.0000   1.0000   1.0000   1.0000   1.0000   1.0000
     1.0000   1.0000   1.0000   1.0000   1.0000   1.0000   0.0000   0.0000
     0.0000   0.0000   0.0000   0.0000   0.0000   0.0000   0.0000   0.0000
     0.0000   0.0000   0.0000   0.0000

          k = 0.0000 0.0642 0.0000 ( 52624 PWs)   bands (ev):

   -77.3267 -77.3265 -74.3850 -74.3847 -49.4764 -49.4738 -49.1588 -49.1579
   -48.7151 -48.7121 -46.3718 -46.3684 -46.0773 -46.0761 -45.7718 -45.7678
   -18.4778 -18.4600 -17.7564 -17.7377 -17.4612 -17.4557 -17.4468 -17.4409
   -17.3593 -17.3586 -17.3441 -17.3433 -10.1423  -9.9012  -9.6495  -9.4532
    -9.2951  -9.2842  -9.1675  -9.0937  -9.0388  -9.0279  -8.7736  -8.6876
    -8.5610  -8.4598  -8.2558  -8.1227  -8.1102  -7.8709  -7.8569  -7.7182
    -7.6455  -7.5907  -7.5348  -7.3047  -7.2621  -7.1467  -6.9921  -6.9219
    -6.6773  -6.6071  -6.4019  -6.3826  -6.1495  -6.1106  -6.0764  -6.0179
    -5.9663  -5.9467  -5.8594  -5.6626  -5.3848  -5.2748  -4.4189  -4.3520
    -4.1506  -3.7927  -3.7642  -3.7193  -3.6817  -3.6381  -3.4181  -3.3652
    -2.8700  -2.8350  -2.6889  -2.4887

     occupation numbers 
     1.0000   1.0000   1.0000   1.0000   1.0000   1.0000   1.0000   1.0000
     1.0000   1.0000   1.0000   1.0000   1.0000   1.0000   1.0000   1.0000
     1.0000   1.0000   1.0000   1.0000   1.0000   1.0000   1.0000   1.0000
     1.0000   1.0000   1.0000   1.0000   1.0000   1.0000   1.0000   1.0000
     1.0000   1.0000   1.0000   1.0000   1.0000   1.0000   1.0000   1.0000
     1.0000   1.0000   1.0000   1.0000   1.0000   1.0000   1.0000   1.0000
     1.0000   1.0000   1.0000   1.0000   1.0000   1.0000   1.0000   1.0000
     1.0000   1.0000   1.0000   1.0000   1.0000   1.0000   1.0000   1.0000
     1.0000   1.0000   1.0000   1.0000   1.0000   1.0000   0.0000   0.0000
     0.0000   0.0000   0.0000   0.0000   0.0000   0.0000   0.0000   0.0000
     0.0000   0.0000   0.0000   0.0000

          k = 0.0000 0.1283 0.0000 ( 52622 PWs)   bands (ev):

   -77.3267 -77.3265 -74.3850 -74.3847 -49.4763 -49.4738 -49.1587 -49.1579
   -48.7150 -48.7121 -46.3717 -46.3684 -46.0773 -46.0761 -45.7717 -45.7679
   -18.4582 -18.4408 -17.7452 -17.7266 -17.4876 -17.4740 -17.4670 -17.4521
   -17.3612 -17.3602 -17.3462 -17.3449 -10.1410  -9.9046  -9.6472  -9.4514
    -9.2875  -9.2767  -9.1512  -9.1227  -9.0751  -9.0305  -8.7200  -8.7078
    -8.5097  -8.3663  -8.2495  -8.1374  -8.0470  -7.8478  -7.8087  -7.6815
    -7.6498  -7.5766  -7.5552  -7.3031  -7.2426  -7.1487  -6.9997  -6.9387
    -6.7213  -6.6115  -6.4272  -6.3646  -6.2155  -6.1453  -6.0986  -6.0060
    -5.9567  -5.9417  -5.8996  -5.6546  -5.4917  -5.3180  -4.4159  -4.3428
    -4.1748  -3.8519  -3.7839  -3.6922  -3.6564  -3.5986  -3.4284  -3.3748
    -2.8767  -2.8314  -2.7071  -2.5320

     occupation numbers 
     1.0000   1.0000   1.0000   1.0000   1.0000   1.0000   1.0000   1.0000
     1.0000   1.0000   1.0000   1.0000   1.0000   1.0000   1.0000   1.0000
     1.0000   1.0000   1.0000   1.0000   1.0000   1.0000   1.0000   1.0000
     1.0000   1.0000   1.0000   1.0000   1.0000   1.0000   1.0000   1.0000
     1.0000   1.0000   1.0000   1.0000   1.0000   1.0000   1.0000   1.0000
     1.0000   1.0000   1.0000   1.0000   1.0000   1.0000   1.0000   1.0000
     1.0000   1.0000   1.0000   1.0000   1.0000   1.0000   1.0000   1.0000
     1.0000   1.0000   1.0000   1.0000   1.0000   1.0000   1.0000   1.0000
     1.0000   1.0000   1.0000   1.0000   1.0000   1.0000   0.0000   0.0000
     0.0000   0.0000   0.0000   0.0000   0.0000   0.0000   0.0000   0.0000
     0.0000   0.0000   0.0000   0.0000

          k = 0.0000 0.1925 0.0000 ( 52592 PWs)   bands (ev):

   -77.3267 -77.3265 -74.3850 -74.3847 -49.4762 -49.4739 -49.1587 -49.1580
   -48.7149 -48.7122 -46.3716 -46.3685 -46.0772 -46.0761 -45.7715 -45.7680
   -18.4260 -18.4093 -17.7270 -17.7085 -17.5290 -17.5169 -17.4825 -17.4673
   -17.3655 -17.3651 -17.3509 -17.3499 -10.1362  -9.9061  -9.6435  -9.4477
    -9.2867  -9.2612  -9.1550  -9.1418  -9.1022  -9.0194  -8.6941  -8.6438
    -8.4403  -8.3301  -8.1921  -8.1429  -7.9698  -7.8408  -7.7355  -7.7089
    -7.5980  -7.5631  -7.5197  -7.3073  -7.2263  -7.1557  -7.0172  -6.9604
    -6.7737  -6.6257  -6.4687  -6.3677  -6.2970  -6.1735  -6.1090  -6.0358
    -5.9910  -5.9434  -5.8922  -5.6542  -5.6155  -5.3662  -4.4119  -4.3280
    -4.2116  -3.9279  -3.7978  -3.6602  -3.6522  -3.5379  -3.4404  -3.3865
    -2.8883  -2.8294  -2.7286  -2.5788

     occupation numbers 
     1.0000   1.0000   1.0000   1.0000   1.0000   1.0000   1.0000   1.0000
     1.0000   1.0000   1.0000   1.0000   1.0000   1.0000   1.0000   1.0000
     1.0000   1.0000   1.0000   1.0000   1.0000   1.0000   1.0000   1.0000
     1.0000   1.0000   1.0000   1.0000   1.0000   1.0000   1.0000   1.0000
     1.0000   1.0000   1.0000   1.0000   1.0000   1.0000   1.0000   1.0000
     1.0000   1.0000   1.0000   1.0000   1.0000   1.0000   1.0000   1.0000
     1.0000   1.0000   1.0000   1.0000   1.0000   1.0000   1.0000   1.0000
     1.0000   1.0000   1.0000   1.0000   1.0000   1.0000   1.0000   1.0000
     1.0000   1.0000   1.0000   1.0000   1.0000   1.0000   0.0000   0.0000
     0.0000   0.0000   0.0000   0.0000   0.0000   0.0000   0.0000   0.0000
     0.0000   0.0000   0.0000   0.0000

          k = 0.0000 0.2566 0.0000 ( 52620 PWs)   bands (ev):

   -77.3267 -77.3265 -74.3850 -74.3847 -49.4761 -49.4740 -49.1587 -49.1580
   -48.7148 -48.7124 -46.3715 -46.3687 -46.0772 -46.0762 -45.7714 -45.7682
   -18.3822 -18.3664 -17.7025 -17.6842 -17.5830 -17.5727 -17.4995 -17.4842
   -17.3753 -17.3718 -17.3600 -17.3577 -10.1286  -9.9048  -9.6348  -9.4386
    -9.2832  -9.2567  -9.1693  -9.1516  -9.0943  -8.9974  -8.6386  -8.5645
    -8.3827  -8.3358  -8.1738  -8.0525  -7.9561  -7.8347  -7.7283  -7.6227
    -7.6177  -7.5422  -7.3850  -7.3357  -7.2214  -7.1720  -7.0497  -6.9765
    -6.8119  -6.6783  -6.5196  -6.4161  -6.3243  -6.2060  -6.1446  -6.1061
    -5.9847  -5.9277  -5.8873  -5.7214  -5.6637  -5.4059  -4.4060  -4.3083
    -4.2480  -4.0040  -3.8116  -3.6840  -3.6117  -3.4885  -3.4477  -3.3918
    -2.8994  -2.8336  -2.7407  -2.6172

     occupation numbers 
     1.0000   1.0000   1.0000   1.0000   1.0000   1.0000   1.0000   1.0000
     1.0000   1.0000   1.0000   1.0000   1.0000   1.0000   1.0000   1.0000
     1.0000   1.0000   1.0000   1.0000   1.0000   1.0000   1.0000   1.0000
     1.0000   1.0000   1.0000   1.0000   1.0000   1.0000   1.0000   1.0000
     1.0000   1.0000   1.0000   1.0000   1.0000   1.0000   1.0000   1.0000
     1.0000   1.0000   1.0000   1.0000   1.0000   1.0000   1.0000   1.0000
     1.0000   1.0000   1.0000   1.0000   1.0000   1.0000   1.0000   1.0000
     1.0000   1.0000   1.0000   1.0000   1.0000   1.0000   1.0000   1.0000
     1.0000   1.0000   1.0000   1.0000   1.0000   1.0000   0.0000   0.0000
     0.0000   0.0000   0.0000   0.0000   0.0000   0.0000   0.0000   0.0000
     0.0000   0.0000   0.0000   0.0000

          k = 0.0000 0.3208 0.0000 ( 52586 PWs)   bands (ev):

   -77.3267 -77.3265 -74.3849 -74.3847 -49.4760 -49.4741 -49.1586 -49.1580
   -48.7146 -48.7125 -46.3713 -46.3689 -46.0771 -46.0762 -45.7712 -45.7684
   -18.3281 -18.3135 -17.6728 -17.6546 -17.6471 -17.6390 -17.5161 -17.5006
   -17.3915 -17.3793 -17.3761 -17.3655 -10.1217  -9.9036  -9.6150  -9.4184
    -9.2896  -9.2550  -9.1799  -9.1270  -9.0669  -8.9634  -8.5655  -8.5088
    -8.3917  -8.2730  -8.1728  -8.0315  -7.9590  -7.8104  -7.7135  -7.5868
    -7.5556  -7.5331  -7.4263  -7.2593  -7.2092  -7.1761  -7.0900  -6.9706
    -6.8281  -6.7544  -6.5787  -6.4556  -6.3383  -6.2398  -6.2264  -6.0961
    -5.9787  -5.9112  -5.8961  -5.7884  -5.6846  -5.4355  -4.3956  -4.2859
    -4.2677  -4.0759  -3.8277  -3.7295  -3.5806  -3.4626  -3.4511  -3.3771
    -2.9015  -2.8413  -2.7403  -2.6449

     occupation numbers 
     1.0000   1.0000   1.0000   1.0000   1.0000   1.0000   1.0000   1.0000
     1.0000   1.0000   1.0000   1.0000   1.0000   1.0000   1.0000   1.0000
     1.0000   1.0000   1.0000   1.0000   1.0000   1.0000   1.0000   1.0000
     1.0000   1.0000   1.0000   1.0000   1.0000   1.0000   1.0000   1.0000
     1.0000   1.0000   1.0000   1.0000   1.0000   1.0000   1.0000   1.0000
     1.0000   1.0000   1.0000   1.0000   1.0000   1.0000   1.0000   1.0000
     1.0000   1.0000   1.0000   1.0000   1.0000   1.0000   1.0000   1.0000
     1.0000   1.0000   1.0000   1.0000   1.0000   1.0000   1.0000   1.0000
     1.0000   1.0000   1.0000   1.0000   1.0000   1.0000   0.0000   0.0000
     0.0000   0.0000   0.0000   0.0000   0.0000   0.0000   0.0000   0.0000
     0.0000   0.0000   0.0000   0.0000

          k = 0.0000 0.3849 0.0000 ( 52554 PWs)   bands (ev):

   -77.3267 -77.3266 -74.3849 -74.3848 -49.4758 -49.4743 -49.1586 -49.1581
   -48.7145 -48.7127 -46.3711 -46.3691 -46.0770 -46.0763 -45.7709 -45.7686
   -18.2659 -18.2527 -17.7182 -17.7123 -17.6391 -17.6211 -17.5306 -17.5150
   -17.4136 -17.3981 -17.3865 -17.3732 -10.1191  -9.9053  -9.5812  -9.3871
    -9.3042  -9.2563  -9.1695  -9.0707  -9.0223  -8.9262  -8.5214  -8.4892
    -8.3715  -8.2249  -8.1766  -8.0974  -7.9451  -7.7401  -7.7194  -7.6294
    -7.5637  -7.4852  -7.4750  -7.3311  -7.2106  -7.0683  -7.0571  -6.9278
    -6.8300  -6.7946  -6.6509  -6.4750  -6.3565  -6.2818  -6.2630  -6.0929
    -5.9784  -5.9294  -5.8851  -5.8060  -5.7078  -5.4593  -4.3810  -4.2844
    -4.2419  -4.1428  -3.8467  -3.7871  -3.5684  -3.4557  -3.4464  -3.3511
    -2.9008  -2.8370  -2.7319  -2.6622

     occupation numbers 
     1.0000   1.0000   1.0000   1.0000   1.0000   1.0000   1.0000   1.0000
     1.0000   1.0000   1.0000   1.0000   1.0000   1.0000   1.0000   1.0000
     1.0000   1.0000   1.0000   1.0000   1.0000   1.0000   1.0000   1.0000
     1.0000   1.0000   1.0000   1.0000   1.0000   1.0000   1.0000   1.0000
     1.0000   1.0000   1.0000   1.0000   1.0000   1.0000   1.0000   1.0000
     1.0000   1.0000   1.0000   1.0000   1.0000   1.0000   1.0000   1.0000
     1.0000   1.0000   1.0000   1.0000   1.0000   1.0000   1.0000   1.0000
     1.0000   1.0000   1.0000   1.0000   1.0000   1.0000   1.0000   1.0000
     1.0000   1.0000   1.0000   1.0000   1.0000   1.0000   0.0000   0.0000
     0.0000   0.0000   0.0000   0.0000   0.0000   0.0000   0.0000   0.0000
     0.0000   0.0000   0.0000   0.0000

          k = 0.0000 0.4491 0.0000 ( 52564 PWs)   bands (ev):

   -77.3267 -77.3266 -74.3849 -74.3848 -49.4757 -49.4745 -49.1585 -49.1581
   -48.7143 -48.7129 -46.3709 -46.3693 -46.0770 -46.0764 -45.7707 -45.7689
   -18.1997 -18.1877 -17.7913 -17.7875 -17.6034 -17.5855 -17.5418 -17.5260
   -17.4406 -17.4249 -17.3926 -17.3796 -10.1207  -9.9099  -9.5403  -9.3569
    -9.3115  -9.2659  -9.1283  -8.9972  -8.9645  -8.9067  -8.5375  -8.4367
    -8.3450  -8.3139  -8.1167  -8.0949  -7.9817  -7.7757  -7.7420  -7.6615
    -7.6183  -7.4870  -7.4419  -7.3461  -7.2718  -6.9967  -6.9722  -6.8482
    -6.8168  -6.7913  -6.7001  -6.4838  -6.3816  -6.3112  -6.2870  -6.1290
    -5.9797  -5.9445  -5.8685  -5.7833  -5.7286  -5.4811  -4.3649  -4.2852
    -4.2096  -4.1897  -3.8664  -3.8437  -3.5703  -3.4544  -3.4374  -3.3291
    -2.9092  -2.8159  -2.7168  -2.6696

     occupation numbers 
     1.0000   1.0000   1.0000   1.0000   1.0000   1.0000   1.0000   1.0000
     1.0000   1.0000   1.0000   1.0000   1.0000   1.0000   1.0000   1.0000
     1.0000   1.0000   1.0000   1.0000   1.0000   1.0000   1.0000   1.0000
     1.0000   1.0000   1.0000   1.0000   1.0000   1.0000   1.0000   1.0000
     1.0000   1.0000   1.0000   1.0000   1.0000   1.0000   1.0000   1.0000
     1.0000   1.0000   1.0000   1.0000   1.0000   1.0000   1.0000   1.0000
     1.0000   1.0000   1.0000   1.0000   1.0000   1.0000   1.0000   1.0000
     1.0000   1.0000   1.0000   1.0000   1.0000   1.0000   1.0000   1.0000
     1.0000   1.0000   1.0000   1.0000   1.0000   1.0000   0.0000   0.0000
     0.0000   0.0000   0.0000   0.0000   0.0000   0.0000   0.0000   0.0000
     0.0000   0.0000   0.0000   0.0000

          k = 0.0000 0.5132 0.0000 ( 52580 PWs)   bands (ev):

   -77.3267 -77.3266 -74.3849 -74.3848 -49.4756 -49.4746 -49.1585 -49.1582
   -48.7141 -48.7130 -46.3707 -46.3694 -46.0769 -46.0764 -45.7705 -45.7690
   -18.1388 -18.1277 -17.8566 -17.8541 -17.5695 -17.5516 -17.5488 -17.5330
   -17.4690 -17.4534 -17.3966 -17.3838 -10.1237  -9.9145  -9.5069  -9.3473
    -9.3021  -9.2734  -9.0692  -8.9423  -8.9141  -8.8998  -8.5347  -8.4307
    -8.3989  -8.2958  -8.1256  -8.0543  -8.0158  -7.8670  -7.8208  -7.6727
    -7.6238  -7.4841  -7.4070  -7.3248  -7.3058  -6.9889  -6.8990  -6.8646
    -6.7924  -6.7133  -6.6814  -6.4874  -6.4145  -6.3378  -6.2900  -6.1890
    -5.9752  -5.9546  -5.8506  -5.7511  -5.7430  -5.5008  -4.3480  -4.2845
    -4.2519  -4.1546  -3.8906  -3.8769  -3.5754  -3.4539  -3.4312  -3.3158
    -2.9185  -2.7990  -2.7020  -2.6660

     occupation numbers 
     1.0000   1.0000   1.0000   1.0000   1.0000   1.0000   1.0000   1.0000
     1.0000   1.0000   1.0000   1.0000   1.0000   1.0000   1.0000   1.0000
     1.0000   1.0000   1.0000   1.0000   1.0000   1.0000   1.0000   1.0000
     1.0000   1.0000   1.0000   1.0000   1.0000   1.0000   1.0000   1.0000
     1.0000   1.0000   1.0000   1.0000   1.0000   1.0000   1.0000   1.0000
     1.0000   1.0000   1.0000   1.0000   1.0000   1.0000   1.0000   1.0000
     1.0000   1.0000   1.0000   1.0000   1.0000   1.0000   1.0000   1.0000
     1.0000   1.0000   1.0000   1.0000   1.0000   1.0000   1.0000   1.0000
     1.0000   1.0000   1.0000   1.0000   1.0000   1.0000   0.0000   0.0000
     0.0000   0.0000   0.0000   0.0000   0.0000   0.0000   0.0000   0.0000
     0.0000   0.0000   0.0000   0.0000

          k = 0.0000-0.5774 0.0000 ( 52578 PWs)   bands (ev):

   -77.3267 -77.3266 -74.3849 -74.3848 -49.4755 -49.4746 -49.1585 -49.1582
   -48.7141 -48.7131 -46.3707 -46.3695 -46.0769 -46.0765 -45.7704 -45.7691
   -18.1094 -18.0985 -17.8877 -17.8854 -17.5513 -17.5510 -17.5354 -17.5329
   -17.4856 -17.4701 -17.3980 -17.3852 -10.1251  -9.9164  -9.4942  -9.3472
    -9.2959  -9.2748  -9.0254  -8.9638  -8.8987  -8.8623  -8.5394  -8.4469
    -8.4178  -8.2143  -8.2109  -8.0245  -8.0119  -7.9360  -7.8366  -7.6766
    -7.6300  -7.4854  -7.3925  -7.3127  -7.3052  -7.0046  -6.8953  -6.8191
    -6.8181  -6.6638  -6.6634  -6.4887  -6.4338  -6.3513  -6.2812  -6.2228
    -5.9734  -5.9591  -5.8420  -5.7486  -5.7358  -5.5098  -4.3372  -4.2839
    -4.2736  -4.1388  -3.9053  -3.8835  -3.5776  -3.4540  -3.4289  -3.3115
    -2.9221  -2.7938  -2.6976  -2.6604

     occupation numbers 
     1.0000   1.0000   1.0000   1.0000   1.0000   1.0000   1.0000   1.0000
     1.0000   1.0000   1.0000   1.0000   1.0000   1.0000   1.0000   1.0000
     1.0000   1.0000   1.0000   1.0000   1.0000   1.0000   1.0000   1.0000
     1.0000   1.0000   1.0000   1.0000   1.0000   1.0000   1.0000   1.0000
     1.0000   1.0000   1.0000   1.0000   1.0000   1.0000   1.0000   1.0000
     1.0000   1.0000   1.0000   1.0000   1.0000   1.0000   1.0000   1.0000
     1.0000   1.0000   1.0000   1.0000   1.0000   1.0000   1.0000   1.0000
     1.0000   1.0000   1.0000   1.0000   1.0000   1.0000   1.0000   1.0000
     1.0000   1.0000   1.0000   1.0000   1.0000   1.0000   0.0000   0.0000
     0.0000   0.0000   0.0000   0.0000   0.0000   0.0000   0.0000   0.0000
     0.0000   0.0000   0.0000   0.0000

          k = 0.0556 0.0962 0.0000 ( 52597 PWs)   bands (ev):

   -77.3267 -77.3265 -74.3850 -74.3847 -49.4763 -49.4738 -49.1588 -49.1579
   -48.7150 -48.7121 -46.3718 -46.3684 -46.0773 -46.0761 -45.7717 -45.7679
   -18.4647 -18.4472 -17.7489 -17.7303 -17.4784 -17.4646 -17.4640 -17.4492
   -17.3602 -17.3597 -17.3451 -17.3445 -10.1415  -9.9037  -9.6480  -9.4521
    -9.2897  -9.2791  -9.1560  -9.1136  -9.0636  -9.0326  -8.7345  -8.7073
    -8.5257  -8.3904  -8.2537  -8.1324  -8.0674  -7.8534  -7.8245  -7.6829
    -7.6606  -7.5788  -7.5514  -7.3032  -7.2484  -7.1479  -6.9974  -6.9329
    -6.7077  -6.6101  -6.4187  -6.3688  -6.1890  -6.1445  -6.0916  -6.0075
    -5.9596  -5.9351  -5.8926  -5.6564  -5.4594  -5.3049  -4.4169  -4.3458
    -4.1670  -3.8330  -3.7764  -3.7120  -3.6449  -3.6200  -3.4252  -3.3718
    -2.8747  -2.8321  -2.7014  -2.5191

     occupation numbers 
     1.0000   1.0000   1.0000   1.0000   1.0000   1.0000   1.0000   1.0000
     1.0000   1.0000   1.0000   1.0000   1.0000   1.0000   1.0000   1.0000
     1.0000   1.0000   1.0000   1.0000   1.0000   1.0000   1.0000   1.0000
     1.0000   1.0000   1.0000   1.0000   1.0000   1.0000   1.0000   1.0000
     1.0000   1.0000   1.0000   1.0000   1.0000   1.0000   1.0000   1.0000
     1.0000   1.0000   1.0000   1.0000   1.0000   1.0000   1.0000   1.0000
     1.0000   1.0000   1.0000   1.0000   1.0000   1.0000   1.0000   1.0000
     1.0000   1.0000   1.0000   1.0000   1.0000   1.0000   1.0000   1.0000
     1.0000   1.0000   1.0000   1.0000   1.0000   1.0000   0.0000   0.0000
     0.0000   0.0000   0.0000   0.0000   0.0000   0.0000   0.0000   0.0000
     0.0000   0.0000   0.0000   0.0000

          k = 0.0556 0.1604 0.0000 ( 52588 PWs)   bands (ev):

   -77.3267 -77.3265 -74.3850 -74.3847 -49.4763 -49.4739 -49.1587 -49.1579
   -48.7150 -48.7122 -46.3717 -46.3685 -46.0772 -46.0761 -45.7716 -45.7680
   -18.4388 -18.4218 -17.7342 -17.7157 -17.5111 -17.4984 -17.4787 -17.4637
   -17.3638 -17.3625 -17.3488 -17.3475 -10.1375  -9.9050  -9.6459  -9.4502
    -9.2920  -9.2617  -9.1549  -9.1306  -9.0986  -9.0246  -8.7051  -8.6703
    -8.4649  -8.3329  -8.2202  -8.1426  -7.9958  -7.8456  -7.7549  -7.7048
    -7.5980  -7.5766  -7.5494  -7.3023  -7.2319  -7.1529  -7.0134  -6.9488
    -6.7568  -6.6151  -6.4520  -6.3610  -6.2702  -6.1747  -6.1017  -6.0038
    -5.9841  -5.9501  -5.8963  -5.6523  -5.5738  -5.3490  -4.4141  -4.3336
    -4.1997  -3.8980  -3.7854  -3.7029  -3.6190  -3.5693  -3.4362  -3.3822
    -2.8862  -2.8270  -2.7219  -2.5618

     occupation numbers 
     1.0000   1.0000   1.0000   1.0000   1.0000   1.0000   1.0000   1.0000
     1.0000   1.0000   1.0000   1.0000   1.0000   1.0000   1.0000   1.0000
     1.0000   1.0000   1.0000   1.0000   1.0000   1.0000   1.0000   1.0000
     1.0000   1.0000   1.0000   1.0000   1.0000   1.0000   1.0000   1.0000
     1.0000   1.0000   1.0000   1.0000   1.0000   1.0000   1.0000   1.0000
     1.0000   1.0000   1.0000   1.0000   1.0000   1.0000   1.0000   1.0000
     1.0000   1.0000   1.0000   1.0000   1.0000   1.0000   1.0000   1.0000
     1.0000   1.0000   1.0000   1.0000   1.0000   1.0000   1.0000   1.0000
     1.0000   1.0000   1.0000   1.0000   1.0000   1.0000   0.0000   0.0000
     0.0000   0.0000   0.0000   0.0000   0.0000   0.0000   0.0000   0.0000
     0.0000   0.0000   0.0000   0.0000

          k = 0.0556 0.2245 0.0000 ( 52618 PWs)   bands (ev):

   -77.3267 -77.3265 -74.3850 -74.3847 -49.4762 -49.4740 -49.1587 -49.1580
   -48.7148 -48.7123 -46.3715 -46.3686 -46.0772 -46.0761 -45.7714 -45.7681
   -18.4008 -18.3846 -17.7129 -17.6945 -17.5577 -17.5466 -17.4962 -17.4810
   -17.3714 -17.3677 -17.3563 -17.3531 -10.1290  -9.9025  -9.6418  -9.4460
    -9.2903  -9.2525  -9.1705  -9.1410  -9.1050  -9.0084  -8.6634  -8.5933
    -8.3947  -8.3435  -8.1715  -8.0942  -7.9482  -7.8419  -7.7391  -7.6542
    -7.6107  -7.5492  -7.4475  -7.3105  -7.2286  -7.1677  -7.0402  -6.9644
    -6.8013  -6.6446  -6.4963  -6.3943  -6.3210  -6.2063  -6.1087  -6.0920
    -5.9835  -5.9401  -5.8835  -5.6877  -5.6567  -5.3900  -4.4109  -4.3161
    -4.2394  -3.9674  -3.7966  -3.6978  -3.6043  -3.5139  -3.4439  -3.3911
    -2.9017  -2.8239  -2.7388  -2.6010

     occupation numbers 
     1.0000   1.0000   1.0000   1.0000   1.0000   1.0000   1.0000   1.0000
     1.0000   1.0000   1.0000   1.0000   1.0000   1.0000   1.0000   1.0000
     1.0000   1.0000   1.0000   1.0000   1.0000   1.0000   1.0000   1.0000
     1.0000   1.0000   1.0000   1.0000   1.0000   1.0000   1.0000   1.0000
     1.0000   1.0000   1.0000   1.0000   1.0000   1.0000   1.0000   1.0000
     1.0000   1.0000   1.0000   1.0000   1.0000   1.0000   1.0000   1.0000
     1.0000   1.0000   1.0000   1.0000   1.0000   1.0000   1.0000   1.0000
     1.0000   1.0000   1.0000   1.0000   1.0000   1.0000   1.0000   1.0000
     1.0000   1.0000   1.0000   1.0000   1.0000   1.0000   0.0000   0.0000
     0.0000   0.0000   0.0000   0.0000   0.0000   0.0000   0.0000   0.0000
     0.0000   0.0000   0.0000   0.0000

          k = 0.0556 0.2887 0.0000 ( 52597 PWs)   bands (ev):

   -77.3267 -77.3265 -74.3850 -74.3847 -49.4760 -49.4741 -49.1587 -49.1580
   -48.7147 -48.7125 -46.3714 -46.3688 -46.0771 -46.0762 -45.7713 -45.7683
   -18.3518 -18.3367 -17.6858 -17.6675 -17.6159 -17.6069 -17.5141 -17.4987
   -17.3841 -17.3749 -17.3688 -17.3608 -10.1181  -9.8975  -9.6305  -9.4339
    -9.2881  -9.2549  -9.1755  -9.1416  -9.0866  -8.9804  -8.5968  -8.5209
    -8.3923  -8.3021  -8.1667  -7.9974  -7.9835  -7.8347  -7.7150  -7.6089
    -7.5635  -7.5558  -7.3690  -7.2892  -7.2342  -7.1913  -7.0686  -6.9755
    -6.8268  -6.7109  -6.5418  -6.4454  -6.3381  -6.2330  -6.1960  -6.0976
    -5.9750  -5.9303  -5.8776  -5.7719  -5.6746  -5.4220  -4.4048  -4.2953
    -4.2682  -4.0339  -3.8120  -3.7178  -3.5871  -3.4823  -3.4411  -3.3870
    -2.9113  -2.8253  -2.7435  -2.6319

     occupation numbers 
     1.0000   1.0000   1.0000   1.0000   1.0000   1.0000   1.0000   1.0000
     1.0000   1.0000   1.0000   1.0000   1.0000   1.0000   1.0000   1.0000
     1.0000   1.0000   1.0000   1.0000   1.0000   1.0000   1.0000   1.0000
     1.0000   1.0000   1.0000   1.0000   1.0000   1.0000   1.0000   1.0000
     1.0000   1.0000   1.0000   1.0000   1.0000   1.0000   1.0000   1.0000
     1.0000   1.0000   1.0000   1.0000   1.0000   1.0000   1.0000   1.0000
     1.0000   1.0000   1.0000   1.0000   1.0000   1.0000   1.0000   1.0000
     1.0000   1.0000   1.0000   1.0000   1.0000   1.0000   1.0000   1.0000
     1.0000   1.0000   1.0000   1.0000   1.0000   1.0000   0.0000   0.0000
     0.0000   0.0000   0.0000   0.0000   0.0000   0.0000   0.0000   0.0000
     0.0000   0.0000   0.0000   0.0000

          k = 0.0556 0.3528 0.0000 ( 52590 PWs)   bands (ev):

   -77.3267 -77.3266 -74.3849 -74.3848 -49.4759 -49.4742 -49.1586 -49.1581
   -48.7145 -48.7126 -46.3712 -46.3690 -46.0771 -46.0763 -45.7710 -45.7685
   -18.2934 -18.2796 -17.6830 -17.6762 -17.6540 -17.6359 -17.5304 -17.5150
   -17.4027 -17.3873 -17.3826 -17.3690 -10.1097  -9.8941  -9.6053  -9.4090
    -9.2960  -9.2542  -9.1784  -9.1031  -9.0506  -8.9440  -8.5284  -8.5016
    -8.3909  -8.2380  -8.1592  -8.0792  -7.9369  -7.7816  -7.7148  -7.6153
    -7.5625  -7.5053  -7.4229  -7.3103  -7.1932  -7.1277  -7.0765  -6.9608
    -6.8359  -6.7646  -6.6016  -6.4711  -6.3601  -6.2685  -6.2483  -6.0916
    -5.9704  -5.9319  -5.8787  -5.8107  -5.6973  -5.4475  -4.3921  -4.2914
    -4.2567  -4.0973  -3.8313  -3.7627  -3.5727  -3.4793  -3.4296  -3.3652
    -2.9088  -2.8260  -2.7381  -2.6538

     occupation numbers 
     1.0000   1.0000   1.0000   1.0000   1.0000   1.0000   1.0000   1.0000
     1.0000   1.0000   1.0000   1.0000   1.0000   1.0000   1.0000   1.0000
     1.0000   1.0000   1.0000   1.0000   1.0000   1.0000   1.0000   1.0000
     1.0000   1.0000   1.0000   1.0000   1.0000   1.0000   1.0000   1.0000
     1.0000   1.0000   1.0000   1.0000   1.0000   1.0000   1.0000   1.0000
     1.0000   1.0000   1.0000   1.0000   1.0000   1.0000   1.0000   1.0000
     1.0000   1.0000   1.0000   1.0000   1.0000   1.0000   1.0000   1.0000
     1.0000   1.0000   1.0000   1.0000   1.0000   1.0000   1.0000   1.0000
     1.0000   1.0000   1.0000   1.0000   1.0000   1.0000   0.0000   0.0000
     0.0000   0.0000   0.0000   0.0000   0.0000   0.0000   0.0000   0.0000
     0.0000   0.0000   0.0000   0.0000

          k = 0.0556 0.4170 0.0000 ( 52576 PWs)   bands (ev):

   -77.3267 -77.3266 -74.3849 -74.3848 -49.4757 -49.4744 -49.1586 -49.1581
   -48.7144 -48.7128 -46.3710 -46.3692 -46.0770 -46.0763 -45.7708 -45.7688
   -18.2287 -18.2162 -17.7552 -17.7505 -17.6193 -17.6013 -17.5438 -17.5283
   -17.4269 -17.4113 -17.3896 -17.3763 -10.1065  -9.8946  -9.5672  -9.3751
    -9.3074  -9.2572  -9.1561  -9.0411  -8.9974  -8.9141  -8.5337  -8.4638
    -8.3605  -8.2768  -8.1426  -8.0830  -7.9593  -7.7547  -7.7274  -7.6671
    -7.5936  -7.4825  -7.4341  -7.3530  -7.2301  -7.0330  -7.0080  -6.8982
    -6.8262  -6.7721  -6.6715  -6.4795  -6.3872  -6.3061  -6.2703  -6.1078
    -5.9735  -5.9429  -5.8759  -5.7971  -5.7195  -5.4704  -4.3739  -4.2943
    -4.2198  -4.1542  -3.8525  -3.8175  -3.5691  -3.4818  -3.4192  -3.3407
    -2.9046  -2.8163  -2.7252  -2.6665

     occupation numbers 
     1.0000   1.0000   1.0000   1.0000   1.0000   1.0000   1.0000   1.0000
     1.0000   1.0000   1.0000   1.0000   1.0000   1.0000   1.0000   1.0000
     1.0000   1.0000   1.0000   1.0000   1.0000   1.0000   1.0000   1.0000
     1.0000   1.0000   1.0000   1.0000   1.0000   1.0000   1.0000   1.0000
     1.0000   1.0000   1.0000   1.0000   1.0000   1.0000   1.0000   1.0000
     1.0000   1.0000   1.0000   1.0000   1.0000   1.0000   1.0000   1.0000
     1.0000   1.0000   1.0000   1.0000   1.0000   1.0000   1.0000   1.0000
     1.0000   1.0000   1.0000   1.0000   1.0000   1.0000   1.0000   1.0000
     1.0000   1.0000   1.0000   1.0000   1.0000   1.0000   0.0000   0.0000
     0.0000   0.0000   0.0000   0.0000   0.0000   0.0000   0.0000   0.0000
     0.0000   0.0000   0.0000   0.0000

          k = 0.0556 0.4811 0.0000 ( 52547 PWs)   bands (ev):

   -77.3267 -77.3266 -74.3849 -74.3848 -49.4756 -49.4745 -49.1585 -49.1582
   -48.7142 -48.7130 -46.3708 -46.3694 -46.0769 -46.0764 -45.7706 -45.7690
   -18.1633 -18.1520 -17.8258 -17.8230 -17.5840 -17.5661 -17.5533 -17.5378
   -17.4549 -17.4391 -17.3949 -17.3817 -10.1075  -9.8978  -9.5275  -9.3497
    -9.3082  -9.2649  -9.1069  -8.9709  -8.9369  -8.9112  -8.5428  -8.4287
    -8.3836  -8.3289  -8.1116  -8.0921  -7.9723  -7.8277  -7.8052  -7.6652
    -7.6010  -7.4828  -7.4269  -7.3309  -7.2697  -6.9916  -6.9312  -6.8617
    -6.7894  -6.7486  -6.6868  -6.4834  -6.4152  -6.3361  -6.2837  -6.1597
    -5.9706  -5.9488  -5.8652  -5.7625  -5.7372  -5.4923  -4.3535  -4.2943
    -4.2198  -4.1627  -3.8726  -3.8654  -3.5725  -3.4826  -3.4122  -3.3231
    -2.9071  -2.8010  -2.7073  -2.6689

     occupation numbers 
     1.0000   1.0000   1.0000   1.0000   1.0000   1.0000   1.0000   1.0000
     1.0000   1.0000   1.0000   1.0000   1.0000   1.0000   1.0000   1.0000
     1.0000   1.0000   1.0000   1.0000   1.0000   1.0000   1.0000   1.0000
     1.0000   1.0000   1.0000   1.0000   1.0000   1.0000   1.0000   1.0000
     1.0000   1.0000   1.0000   1.0000   1.0000   1.0000   1.0000   1.0000
     1.0000   1.0000   1.0000   1.0000   1.0000   1.0000   1.0000   1.0000
     1.0000   1.0000   1.0000   1.0000   1.0000   1.0000   1.0000   1.0000
     1.0000   1.0000   1.0000   1.0000   1.0000   1.0000   1.0000   1.0000
     1.0000   1.0000   1.0000   1.0000   1.0000   1.0000   0.0000   0.0000
     0.0000   0.0000   0.0000   0.0000   0.0000   0.0000   0.0000   0.0000
     0.0000   0.0000   0.0000   0.0000

          k = 0.0556 0.5453 0.0000 ( 52563 PWs)   bands (ev):

   -77.3267 -77.3266 -74.3849 -74.3848 -49.4755 -49.4746 -49.1585 -49.1582
   -48.7141 -48.7131 -46.3707 -46.3695 -46.0769 -46.0765 -45.7704 -45.7691
   -18.1133 -18.1024 -17.8789 -17.8767 -17.5585 -17.5546 -17.5427 -17.5368
   -17.4802 -17.4646 -17.3977 -17.3847 -10.1091  -9.9004  -9.5023  -9.3439
    -9.2985  -9.2693  -9.0492  -8.9579  -8.9111  -8.8778  -8.5453  -8.4584
    -8.4152  -8.2722  -8.1799  -8.0876  -7.9465  -7.9206  -7.8356  -7.6649
    -7.6034  -7.5024  -7.4036  -7.2922  -7.2861  -6.9945  -6.9006  -6.8427
    -6.8027  -6.6907  -6.6436  -6.4919  -6.4365  -6.3569  -6.2847  -6.2082
    -5.9655  -5.9555  -5.8531  -5.7480  -5.7344  -5.5085  -4.3343  -4.2951
    -4.2523  -4.1370  -3.8969  -3.8814  -3.5759  -3.4829  -3.4086  -3.3144
    -2.9106  -2.7926  -2.6975  -2.6617

     occupation numbers 
     1.0000   1.0000   1.0000   1.0000   1.0000   1.0000   1.0000   1.0000
     1.0000   1.0000   1.0000   1.0000   1.0000   1.0000   1.0000   1.0000
     1.0000   1.0000   1.0000   1.0000   1.0000   1.0000   1.0000   1.0000
     1.0000   1.0000   1.0000   1.0000   1.0000   1.0000   1.0000   1.0000
     1.0000   1.0000   1.0000   1.0000   1.0000   1.0000   1.0000   1.0000
     1.0000   1.0000   1.0000   1.0000   1.0000   1.0000   1.0000   1.0000
     1.0000   1.0000   1.0000   1.0000   1.0000   1.0000   1.0000   1.0000
     1.0000   1.0000   1.0000   1.0000   1.0000   1.0000   1.0000   1.0000
     1.0000   1.0000   1.0000   1.0000   1.0000   1.0000   0.0000   0.0000
     0.0000   0.0000   0.0000   0.0000   0.0000   0.0000   0.0000   0.0000
     0.0000   0.0000   0.0000   0.0000

          k = 0.1111 0.1925 0.0000 ( 52627 PWs)   bands (ev):

   -77.3267 -77.3265 -74.3850 -74.3847 -49.4762 -49.4739 -49.1587 -49.1580
   -48.7149 -48.7123 -46.3716 -46.3686 -46.0772 -46.0761 -45.7715 -45.7681
   -18.4070 -18.3907 -17.7164 -17.6979 -17.5469 -17.5355 -17.4976 -17.4824
   -17.3703 -17.3657 -17.3552 -17.3511 -10.1277  -9.9001  -9.6453  -9.4497
    -9.2962  -9.2489  -9.1733  -9.1287  -9.1135  -9.0124  -8.6710  -8.6029
    -8.4002  -8.3461  -8.1716  -8.1056  -7.9502  -7.8470  -7.7428  -7.6606
    -7.6060  -7.5526  -7.4737  -7.2972  -7.2356  -7.1675  -7.0413  -6.9555
    -6.7976  -6.6299  -6.4871  -6.3858  -6.3194  -6.2151  -6.1026  -6.0733
    -5.9806  -5.9467  -5.8822  -5.6757  -5.6542  -5.3830  -4.4136  -4.3183
    -4.2384  -3.9506  -3.7796  -3.7240  -3.5838  -3.5339  -3.4422  -3.3898
    -2.9047  -2.8179  -2.7383  -2.5933

     occupation numbers 
     1.0000   1.0000   1.0000   1.0000   1.0000   1.0000   1.0000   1.0000
     1.0000   1.0000   1.0000   1.0000   1.0000   1.0000   1.0000   1.0000
     1.0000   1.0000   1.0000   1.0000   1.0000   1.0000   1.0000   1.0000
     1.0000   1.0000   1.0000   1.0000   1.0000   1.0000   1.0000   1.0000
     1.0000   1.0000   1.0000   1.0000   1.0000   1.0000   1.0000   1.0000
     1.0000   1.0000   1.0000   1.0000   1.0000   1.0000   1.0000   1.0000
     1.0000   1.0000   1.0000   1.0000   1.0000   1.0000   1.0000   1.0000
     1.0000   1.0000   1.0000   1.0000   1.0000   1.0000   1.0000   1.0000
     1.0000   1.0000   1.0000   1.0000   1.0000   1.0000   0.0000   0.0000
     0.0000   0.0000   0.0000   0.0000   0.0000   0.0000   0.0000   0.0000
     0.0000   0.0000   0.0000   0.0000

          k = 0.1111 0.2566 0.0000 ( 52596 PWs)   bands (ev):

   -77.3267 -77.3265 -74.3850 -74.3847 -49.4761 -49.4741 -49.1587 -49.1580
   -48.7147 -48.7124 -46.3714 -46.3688 -46.0771 -46.0762 -45.7713 -45.7683
   -18.3637 -18.3484 -17.6924 -17.6741 -17.5951 -17.5856 -17.5187 -17.5035
   -17.3808 -17.3713 -17.3655 -17.3569 -10.1109  -9.8885  -9.6431  -9.4468
    -9.2956  -9.2492  -9.1766  -9.1358  -9.1050  -8.9909  -8.6128  -8.5273
    -8.3927  -8.3176  -8.1586  -8.0021  -7.9763  -7.8525  -7.7229  -7.6145
    -7.5734  -7.5625  -7.3524  -7.3003  -7.2518  -7.2005  -7.0612  -6.9684
    -6.8260  -6.6705  -6.5173  -6.4460  -6.3408  -6.2421  -6.1710  -6.0932
    -5.9682  -5.9436  -5.8668  -5.7653  -5.6691  -5.4116  -4.4136  -4.2994
    -4.2724  -4.0004  -3.7844  -3.7386  -3.5793  -3.4991  -3.4375  -3.3904
    -2.9215  -2.8076  -2.7472  -2.6206

     occupation numbers 
     1.0000   1.0000   1.0000   1.0000   1.0000   1.0000   1.0000   1.0000
     1.0000   1.0000   1.0000   1.0000   1.0000   1.0000   1.0000   1.0000
     1.0000   1.0000   1.0000   1.0000   1.0000   1.0000   1.0000   1.0000
     1.0000   1.0000   1.0000   1.0000   1.0000   1.0000   1.0000   1.0000
     1.0000   1.0000   1.0000   1.0000   1.0000   1.0000   1.0000   1.0000
     1.0000   1.0000   1.0000   1.0000   1.0000   1.0000   1.0000   1.0000
     1.0000   1.0000   1.0000   1.0000   1.0000   1.0000   1.0000   1.0000
     1.0000   1.0000   1.0000   1.0000   1.0000   1.0000   1.0000   1.0000
     1.0000   1.0000   1.0000   1.0000   1.0000   1.0000   0.0000   0.0000
     0.0000   0.0000   0.0000   0.0000   0.0000   0.0000   0.0000   0.0000
     0.0000   0.0000   0.0000   0.0000

          k = 0.1111 0.3208 0.0000 ( 52580 PWs)   bands (ev):

   -77.3267 -77.3266 -74.3849 -74.3848 -49.4759 -49.4742 -49.1586 -49.1580
[...]
    -8.3675  -8.3612  -8.1286  -8.0685  -7.9149  -7.8229  -7.7716  -7.6502
    -7.6349  -7.4861  -7.3399  -7.2890  -7.1809  -7.0662  -6.9932  -6.9030
    -6.8069  -6.6985  -6.6205  -6.5206  -6.4201  -6.3567  -6.2415  -6.1256
    -5.9977  -5.9419  -5.8748  -5.7698  -5.7249  -5.4765  -4.3674  -4.3190
    -4.2071  -4.0843  -3.8532  -3.7959  -3.6047  -3.5273  -3.3802  -3.3475
    -2.8889  -2.7665  -2.7207  -2.6649

     occupation numbers 
     1.0000   1.0000   1.0000   1.0000   1.0000   1.0000   1.0000   1.0000
     1.0000   1.0000   1.0000   1.0000   1.0000   1.0000   1.0000   1.0000
     1.0000   1.0000   1.0000   1.0000   1.0000   1.0000   1.0000   1.0000
     1.0000   1.0000   1.0000   1.0000   1.0000   1.0000   1.0000   1.0000
     1.0000   1.0000   1.0000   1.0000   1.0000   1.0000   1.0000   1.0000
     1.0000   1.0000   1.0000   1.0000   1.0000   1.0000   1.0000   1.0000
     1.0000   1.0000   1.0000   1.0000   1.0000   1.0000   1.0000   1.0000
     1.0000   1.0000   1.0000   1.0000   1.0000   1.0000   1.0000   1.0000
     1.0000   1.0000   1.0000   1.0000   1.0000   1.0000   0.0000   0.0000
     0.0000   0.0000   0.0000   0.0000   0.0000   0.0000   0.0000   0.0000
     0.0000   0.0000   0.0000   0.0000

          k = 0.1667 0.4811 0.0000 ( 52543 PWs)   bands (ev):

   -77.3267 -77.3266 -74.3849 -74.3848 -49.4755 -49.4746 -49.1585 -49.1582
   -48.7141 -48.7131 -46.3707 -46.3695 -46.0769 -46.0765 -45.7704 -45.7691
   -18.1310 -18.1207 -17.8288 -17.8275 -17.6007 -17.5857 -17.5696 -17.5519
   -17.4543 -17.4383 -17.3991 -17.3853  -9.9992  -9.7906  -9.5748  -9.3809
    -9.2886  -9.2299  -9.1341  -9.0264  -8.9593  -8.9305  -8.5770  -8.4855
    -8.4491  -8.3463  -8.1940  -8.1206  -7.9394  -7.8454  -7.7836  -7.6239
    -7.6175  -7.4690  -7.3473  -7.2545  -7.1798  -7.0291  -6.9430  -6.8619
    -6.7858  -6.6841  -6.6472  -6.4957  -6.4622  -6.3814  -6.2505  -6.1683
    -5.9864  -5.9404  -5.8740  -5.7498  -5.7185  -5.5015  -4.3303  -4.3192
    -4.1956  -4.0941  -3.8745  -3.8294  -3.6009  -3.5460  -3.3719  -3.3330
    -2.8597  -2.7708  -2.6963  -2.6675

     occupation numbers 
     1.0000   1.0000   1.0000   1.0000   1.0000   1.0000   1.0000   1.0000
     1.0000   1.0000   1.0000   1.0000   1.0000   1.0000   1.0000   1.0000
     1.0000   1.0000   1.0000   1.0000   1.0000   1.0000   1.0000   1.0000
     1.0000   1.0000   1.0000   1.0000   1.0000   1.0000   1.0000   1.0000
     1.0000   1.0000   1.0000   1.0000   1.0000   1.0000   1.0000   1.0000
     1.0000   1.0000   1.0000   1.0000   1.0000   1.0000   1.0000   1.0000
     1.0000   1.0000   1.0000   1.0000   1.0000   1.0000   1.0000   1.0000
     1.0000   1.0000   1.0000   1.0000   1.0000   1.0000   1.0000   1.0000
     1.0000   1.0000   1.0000   1.0000   1.0000   1.0000   0.0000   0.0000
     0.0000   0.0000   0.0000   0.0000   0.0000   0.0000   0.0000   0.0000
     0.0000   0.0000   0.0000   0.0000

          k = 0.1667 0.5453 0.0000 ( 52537 PWs)   bands (ev):

   -77.3267 -77.3266 -74.3849 -74.3848 -49.4754 -49.4747 -49.1584 -49.1582
   -48.7140 -48.7132 -46.3705 -46.3696 -46.0768 -46.0765 -45.7703 -45.7693
   -18.0796 -18.0700 -17.8811 -17.8804 -17.6073 -17.5924 -17.5417 -17.5240
   -17.4774 -17.4614 -17.4024 -17.3887  -9.9916  -9.7843  -9.5461  -9.3574
    -9.2884  -9.2248  -9.0959  -9.0016  -8.9621  -8.9095  -8.6016  -8.5320
    -8.4418  -8.3369  -8.2664  -8.1379  -8.0235  -7.8660  -7.7089  -7.6117
    -7.5973  -7.4602  -7.4009  -7.1970  -7.1745  -7.0045  -6.9184  -6.8547
    -6.7996  -6.6855  -6.5952  -6.5026  -6.4796  -6.3957  -6.2605  -6.1964
    -5.9694  -5.9422  -5.8753  -5.7544  -5.6919  -5.5205  -4.3231  -4.2950
    -4.2101  -4.0852  -3.8802  -3.8577  -3.5936  -3.5603  -3.3680  -3.3255
    -2.8411  -2.7758  -2.6918  -2.6547

     occupation numbers 
     1.0000   1.0000   1.0000   1.0000   1.0000   1.0000   1.0000   1.0000
     1.0000   1.0000   1.0000   1.0000   1.0000   1.0000   1.0000   1.0000
     1.0000   1.0000   1.0000   1.0000   1.0000   1.0000   1.0000   1.0000
     1.0000   1.0000   1.0000   1.0000   1.0000   1.0000   1.0000   1.0000
     1.0000   1.0000   1.0000   1.0000   1.0000   1.0000   1.0000   1.0000
     1.0000   1.0000   1.0000   1.0000   1.0000   1.0000   1.0000   1.0000
     1.0000   1.0000   1.0000   1.0000   1.0000   1.0000   1.0000   1.0000
     1.0000   1.0000   1.0000   1.0000   1.0000   1.0000   1.0000   1.0000
     1.0000   1.0000   1.0000   1.0000   1.0000   1.0000   0.0000   0.0000
     0.0000   0.0000   0.0000   0.0000   0.0000   0.0000   0.0000   0.0000
     0.0000   0.0000   0.0000   0.0000

          k = 0.2222 0.3849 0.0000 ( 52542 PWs)   bands (ev):

   -77.3267 -77.3266 -74.3849 -74.3848 -49.4757 -49.4745 -49.1585 -49.1581
   -48.7143 -48.7129 -46.3709 -46.3693 -46.0769 -46.0764 -45.7707 -45.7689
   -18.2001 -18.1885 -17.7505 -17.7476 -17.6057 -17.5966 -17.5879 -17.5814
   -17.4255 -17.4097 -17.3933 -17.3793  -9.9927  -9.7812  -9.6357  -9.4375
    -9.2817  -9.2439  -9.1451  -9.1019  -9.0159  -8.9322  -8.5642  -8.4817
    -8.3684  -8.3623  -8.1261  -8.0653  -7.9079  -7.8228  -7.7661  -7.6528
    -7.6438  -7.4896  -7.3385  -7.2390  -7.1781  -7.0963  -6.9938  -6.9117
    -6.8070  -6.6926  -6.6003  -6.5405  -6.4084  -6.3578  -6.2312  -6.1237
    -6.0156  -5.9450  -5.8673  -5.7696  -5.7228  -5.4735  -4.3716  -4.3222
    -4.2090  -4.0644  -3.8504  -3.7749  -3.6259  -3.5261  -3.3755  -3.3534
    -2.8888  -2.7538  -2.7253  -2.6626

     occupation numbers 
     1.0000   1.0000   1.0000   1.0000   1.0000   1.0000   1.0000   1.0000
     1.0000   1.0000   1.0000   1.0000   1.0000   1.0000   1.0000   1.0000
     1.0000   1.0000   1.0000   1.0000   1.0000   1.0000   1.0000   1.0000
     1.0000   1.0000   1.0000   1.0000   1.0000   1.0000   1.0000   1.0000
     1.0000   1.0000   1.0000   1.0000   1.0000   1.0000   1.0000   1.0000
     1.0000   1.0000   1.0000   1.0000   1.0000   1.0000   1.0000   1.0000
     1.0000   1.0000   1.0000   1.0000   1.0000   1.0000   1.0000   1.0000
     1.0000   1.0000   1.0000   1.0000   1.0000   1.0000   1.0000   1.0000
     1.0000   1.0000   1.0000   1.0000   1.0000   1.0000   0.0000   0.0000
     0.0000   0.0000   0.0000   0.0000   0.0000   0.0000   0.0000   0.0000
     0.0000   0.0000   0.0000   0.0000

          k = 0.2222 0.4491 0.0000 ( 52530 PWs)   bands (ev):

   -77.3267 -77.3266 -74.3849 -74.3848 -49.4755 -49.4746 -49.1585 -49.1582
   -48.7141 -48.7131 -46.3707 -46.3695 -46.0769 -46.0765 -45.7704 -45.7691
   -18.1363 -18.1261 -17.8087 -17.8079 -17.6186 -17.6035 -17.5736 -17.5560
   -17.4449 -17.4288 -17.4015 -17.3876  -9.9423  -9.7336  -9.6222  -9.4246
    -9.2739  -9.2279  -9.1300  -9.0773  -8.9747  -8.9430  -8.5884  -8.4889
    -8.4663  -8.3517  -8.2049  -8.1141  -7.9448  -7.8325  -7.7609  -7.6490
    -7.6029  -7.4812  -7.2730  -7.2287  -7.1619  -7.0745  -6.9426  -6.8686
    -6.7996  -6.6711  -6.6428  -6.5133  -6.4526  -6.3690  -6.2296  -6.1650
    -6.0285  -5.9414  -5.8576  -5.7527  -5.7108  -5.4987  -4.3312  -4.3264
    -4.1900  -4.0645  -3.8708  -3.7911  -3.6437  -3.5435  -3.3636  -3.3414
    -2.8500  -2.7553  -2.6940  -2.6693

     occupation numbers 
     1.0000   1.0000   1.0000   1.0000   1.0000   1.0000   1.0000   1.0000
     1.0000   1.0000   1.0000   1.0000   1.0000   1.0000   1.0000   1.0000
     1.0000   1.0000   1.0000   1.0000   1.0000   1.0000   1.0000   1.0000
     1.0000   1.0000   1.0000   1.0000   1.0000   1.0000   1.0000   1.0000
     1.0000   1.0000   1.0000   1.0000   1.0000   1.0000   1.0000   1.0000
     1.0000   1.0000   1.0000   1.0000   1.0000   1.0000   1.0000   1.0000
     1.0000   1.0000   1.0000   1.0000   1.0000   1.0000   1.0000   1.0000
     1.0000   1.0000   1.0000   1.0000   1.0000   1.0000   1.0000   1.0000
     1.0000   1.0000   1.0000   1.0000   1.0000   1.0000   0.0000   0.0000
     0.0000   0.0000   0.0000   0.0000   0.0000   0.0000   0.0000   0.0000
     0.0000   0.0000   0.0000   0.0000

          k = 0.2222 0.5132 0.0000 ( 52530 PWs)   bands (ev):

   -77.3267 -77.3266 -74.3849 -74.3848 -49.4754 -49.4748 -49.1584 -49.1582
   -48.7139 -48.7132 -46.3705 -46.3697 -46.0768 -46.0765 -45.7702 -45.7693
   -18.0748 -18.0658 -17.8679 -17.8667 -17.6322 -17.6171 -17.5430 -17.5255
   -17.4670 -17.4507 -17.4073 -17.3934  -9.9101  -9.7032  -9.5978  -9.4026
    -9.2713  -9.2074  -9.1151  -9.0382  -8.9954  -8.9314  -8.6121  -8.5606
    -8.4545  -8.3698  -8.2839  -8.1366  -8.0478  -7.8577  -7.6745  -7.6264
    -7.5749  -7.4466  -7.3213  -7.1831  -7.1366  -7.0293  -6.9318  -6.8416
    -6.8089  -6.6979  -6.6005  -6.5007  -6.4654  -6.3955  -6.2390  -6.1920
    -6.0211  -5.9378  -5.8561  -5.7568  -5.6748  -5.5242  -4.3296  -4.2916
    -4.1915  -4.0533  -3.8749  -3.8209  -3.6477  -3.5577  -3.3575  -3.3330
    -2.8142  -2.7613  -2.6902  -2.6523

     occupation numbers 
     1.0000   1.0000   1.0000   1.0000   1.0000   1.0000   1.0000   1.0000
     1.0000   1.0000   1.0000   1.0000   1.0000   1.0000   1.0000   1.0000
     1.0000   1.0000   1.0000   1.0000   1.0000   1.0000   1.0000   1.0000
     1.0000   1.0000   1.0000   1.0000   1.0000   1.0000   1.0000   1.0000
     1.0000   1.0000   1.0000   1.0000   1.0000   1.0000   1.0000   1.0000
     1.0000   1.0000   1.0000   1.0000   1.0000   1.0000   1.0000   1.0000
     1.0000   1.0000   1.0000   1.0000   1.0000   1.0000   1.0000   1.0000
     1.0000   1.0000   1.0000   1.0000   1.0000   1.0000   1.0000   1.0000
     1.0000   1.0000   1.0000   1.0000   1.0000   1.0000   0.0000   0.0000
     0.0000   0.0000   0.0000   0.0000   0.0000   0.0000   0.0000   0.0000
     0.0000   0.0000   0.0000   0.0000

          k = 0.2222 0.5774 0.0000 ( 52506 PWs)   bands (ev):

   -77.3266 -77.3266 -74.3849 -74.3848 -49.4753 -49.4748 -49.1584 -49.1583
   -48.7138 -48.7133 -46.3704 -46.3698 -46.0768 -46.0766 -45.7701 -45.7694
   -18.0417 -18.0332 -17.9005 -17.8987 -17.6367 -17.6217 -17.5255 -17.5079
   -17.4815 -17.4653 -17.4093 -17.3954  -9.8998  -9.6936  -9.5844  -9.3912
    -9.2709  -9.1980  -9.0970  -9.0459  -8.9876  -8.9362  -8.6400  -8.5594
    -8.4600  -8.3824  -8.3000  -8.1647  -8.0767  -7.8652  -7.6716  -7.5831
    -7.5493  -7.4412  -7.3581  -7.1790  -7.1070  -6.9977  -6.9440  -6.8470
    -6.8080  -6.7030  -6.5718  -6.5060  -6.4701  -6.4049  -6.2451  -6.1998
    -6.0153  -5.9366  -5.8566  -5.7593  -5.6562  -5.5374  -4.3306  -4.2726
    -4.1989  -4.0459  -3.8689  -3.8408  -3.6470  -3.5634  -3.3557  -3.3300
    -2.7962  -2.7678  -2.6934  -2.6407

     occupation numbers 
     1.0000   1.0000   1.0000   1.0000   1.0000   1.0000   1.0000   1.0000
     1.0000   1.0000   1.0000   1.0000   1.0000   1.0000   1.0000   1.0000
     1.0000   1.0000   1.0000   1.0000   1.0000   1.0000   1.0000   1.0000
     1.0000   1.0000   1.0000   1.0000   1.0000   1.0000   1.0000   1.0000
     1.0000   1.0000   1.0000   1.0000   1.0000   1.0000   1.0000   1.0000
     1.0000   1.0000   1.0000   1.0000   1.0000   1.0000   1.0000   1.0000
     1.0000   1.0000   1.0000   1.0000   1.0000   1.0000   1.0000   1.0000
     1.0000   1.0000   1.0000   1.0000   1.0000   1.0000   1.0000   1.0000
     1.0000   1.0000   1.0000   1.0000   1.0000   1.0000   0.0000   0.0000
     0.0000   0.0000   0.0000   0.0000   0.0000   0.0000   0.0000   0.0000
     0.0000   0.0000   0.0000   0.0000

          k = 0.2778 0.4811 0.0000 ( 52508 PWs)   bands (ev):

   -77.3267 -77.3266 -74.3849 -74.3848 -49.4754 -49.4748 -49.1584 -49.1582
   -48.7139 -48.7132 -46.3705 -46.3697 -46.0768 -46.0765 -45.7702 -45.7693
   -18.0738 -18.0651 -17.8610 -17.8593 -17.6427 -17.6274 -17.5439 -17.5265
   -17.4618 -17.4453 -17.4100 -17.3962  -9.8649  -9.6586  -9.6321  -9.4352
    -9.2644  -9.2062  -9.0998  -9.0753  -9.0023  -8.9407  -8.6144  -8.5718
    -8.4591  -8.3801  -8.2914  -8.1308  -8.0590  -7.8542  -7.6730  -7.6267
    -7.5639  -7.4422  -7.2833  -7.1688  -7.1287  -7.0600  -6.9096  -6.8477
    -6.8228  -6.7049  -6.6008  -6.5002  -6.4580  -6.3833  -6.2262  -6.1966
    -6.0487  -5.9359  -5.8470  -5.7580  -5.6682  -5.5256  -4.3321  -4.2912
    -4.1856  -4.0390  -3.8726  -3.7968  -3.6784  -3.5555  -3.3538  -3.3364
    -2.8069  -2.7528  -2.6890  -2.6512

     occupation numbers 
     1.0000   1.0000   1.0000   1.0000   1.0000   1.0000   1.0000   1.0000
     1.0000   1.0000   1.0000   1.0000   1.0000   1.0000   1.0000   1.0000
     1.0000   1.0000   1.0000   1.0000   1.0000   1.0000   1.0000   1.0000
     1.0000   1.0000   1.0000   1.0000   1.0000   1.0000   1.0000   1.0000
     1.0000   1.0000   1.0000   1.0000   1.0000   1.0000   1.0000   1.0000
     1.0000   1.0000   1.0000   1.0000   1.0000   1.0000   1.0000   1.0000
     1.0000   1.0000   1.0000   1.0000   1.0000   1.0000   1.0000   1.0000
     1.0000   1.0000   1.0000   1.0000   1.0000   1.0000   1.0000   1.0000
     1.0000   1.0000   1.0000   1.0000   1.0000   1.0000   0.0000   0.0000
     0.0000   0.0000   0.0000   0.0000   0.0000   0.0000   0.0000   0.0000
     0.0000   0.0000   0.0000   0.0000

          k = 0.2778 0.5453 0.0000 ( 52522 PWs)   bands (ev):

   -77.3266 -77.3266 -74.3849 -74.3848 -49.4752 -49.4749 -49.1584 -49.1583
   -48.7138 -48.7134 -46.3703 -46.3699 -46.0767 -46.0766 -45.7700 -45.7695
   -18.0175 -18.0101 -17.9122 -17.9088 -17.6555 -17.6402 -17.5180 -17.5006
   -17.4803 -17.4636 -17.4153 -17.4015  -9.8118  -9.6393  -9.6062  -9.4425
    -9.2633  -9.1801  -9.0911  -9.0704  -9.0235  -8.9568  -8.6508  -8.5780
    -8.4605  -8.4267  -8.3109  -8.1792  -8.0981  -7.8642  -7.6845  -7.5675
    -7.4943  -7.4113  -7.3331  -7.1774  -7.0769  -7.0070  -6.9391  -6.8426
    -6.8137  -6.7375  -6.5628  -6.4956  -6.4460  -6.4072  -6.2362  -6.2029
    -6.0556  -5.9314  -5.8438  -5.7616  -5.6305  -5.5523  -4.3352  -4.2638
    -4.1895  -4.0197  -3.8592  -3.8178  -3.6940  -3.5626  -3.3502  -3.3327
    -2.7741  -2.7554  -2.6976  -2.6302

     occupation numbers 
     1.0000   1.0000   1.0000   1.0000   1.0000   1.0000   1.0000   1.0000
     1.0000   1.0000   1.0000   1.0000   1.0000   1.0000   1.0000   1.0000
     1.0000   1.0000   1.0000   1.0000   1.0000   1.0000   1.0000   1.0000
     1.0000   1.0000   1.0000   1.0000   1.0000   1.0000   1.0000   1.0000
     1.0000   1.0000   1.0000   1.0000   1.0000   1.0000   1.0000   1.0000
     1.0000   1.0000   1.0000   1.0000   1.0000   1.0000   1.0000   1.0000
     1.0000   1.0000   1.0000   1.0000   1.0000   1.0000   1.0000   1.0000
     1.0000   1.0000   1.0000   1.0000   1.0000   1.0000   1.0000   1.0000
     1.0000   1.0000   1.0000   1.0000   1.0000   1.0000   0.0000   0.0000
     0.0000   0.0000   0.0000   0.0000   0.0000   0.0000   0.0000   0.0000
     0.0000   0.0000   0.0000   0.0000

          k = 0.3333 0.5774 0.0000 ( 52536 PWs)   bands (ev):

   -77.3266 -77.3266 -74.3848 -74.3848 -49.4751 -49.4751 -49.1583 -49.1583
   -48.7136 -48.7136 -46.3701 -46.3701 -46.0767 -46.0767 -45.7698 -45.7698
   -17.9630 -17.9617 -17.9573 -17.9562 -17.6642 -17.6487 -17.4968 -17.4967
   -17.4797 -17.4796 -17.4188 -17.4051  -9.7413  -9.6860  -9.5347  -9.4908
    -9.2640  -9.1557  -9.1121  -9.0637  -9.0273  -8.9838  -8.6556  -8.5858
    -8.4725  -8.4396  -8.3211  -8.2022  -8.1070  -7.8666  -7.6928  -7.5571
    -7.3988  -7.3947  -7.3907  -7.1790  -7.0592  -6.9806  -6.9546  -6.8507
    -6.7991  -6.7647  -6.5493  -6.4860  -6.4287  -6.4225  -6.2402  -6.2036
    -6.0690  -5.9285  -5.8399  -5.7629  -5.5980  -5.5787  -4.3373  -4.2540
    -4.1888  -4.0064  -3.8423  -3.8238  -3.7145  -3.5641  -3.3486  -3.3320
    -2.7612  -2.7478  -2.7046  -2.6204

     occupation numbers 
     1.0000   1.0000   1.0000   1.0000   1.0000   1.0000   1.0000   1.0000
     1.0000   1.0000   1.0000   1.0000   1.0000   1.0000   1.0000   1.0000
     1.0000   1.0000   1.0000   1.0000   1.0000   1.0000   1.0000   1.0000
     1.0000   1.0000   1.0000   1.0000   1.0000   1.0000   1.0000   1.0000
     1.0000   1.0000   1.0000   1.0000   1.0000   1.0000   1.0000   1.0000
     1.0000   1.0000   1.0000   1.0000   1.0000   1.0000   1.0000   1.0000
     1.0000   1.0000   1.0000   1.0000   1.0000   1.0000   1.0000   1.0000
     1.0000   1.0000   1.0000   1.0000   1.0000   1.0000   1.0000   1.0000
     1.0000   1.0000   1.0000   1.0000   1.0000   1.0000   0.0000   0.0000
     0.0000   0.0000   0.0000   0.0000   0.0000   0.0000   0.0000   0.0000
     0.0000   0.0000   0.0000   0.0000

     the Fermi energy is    -4.7673 ev

!    total energy              =    -512.11078141 Ry
     estimated scf accuracy    <          2.7E-14 Ry
     smearing contrib. (-TS)   =      -0.00000000 Ry
     internal energy E=F+TS    =    -512.11078141 Ry

     The total energy is F=E-TS. E is the sum of the following terms:
     one-electron contribution =   -1703.28101181 Ry
     hartree contribution      =     845.95369721 Ry
     xc contribution           =     -99.96455756 Ry
     ewald contribution        =     445.18109075 Ry

     total magnetization       =     0.00    -0.00     6.03 Bohr mag/cell
     absolute magnetization    =     7.16 Bohr mag/cell

     convergence has been achieved in  20 iterations

     Writing all to output data dir ./cri3_90Ry_k18x18x1.save/
 
     init_run     :     91.74s CPU     95.25s WALL (       1 calls)
     electrons    :   3674.27s CPU   3725.83s WALL (       1 calls)

     Called by init_run:
     wfcinit      :     90.49s CPU     93.91s WALL (       1 calls)
     wfcinit:atom :      0.80s CPU      1.48s WALL (      37 calls)
     wfcinit:wfcr :     87.02s CPU     89.09s WALL (      37 calls)
     potinit      :      0.37s CPU      0.39s WALL (       1 calls)
     hinit0       :      0.51s CPU      0.55s WALL (       1 calls)

     Called by electrons:
     c_bands      :   3279.44s CPU   3325.71s WALL (      20 calls)
     sum_band     :    391.35s CPU    396.39s WALL (      20 calls)
     v_of_rho     :      0.51s CPU      0.52s WALL (      21 calls)
     v_h          :      0.13s CPU      0.13s WALL (      21 calls)
     v_xc         :      0.38s CPU      0.39s WALL (      21 calls)
     mix_rho      :      2.66s CPU      2.71s WALL (      20 calls)

     Called by c_bands:
     init_us_2    :     18.41s CPU     18.54s WALL (    1517 calls)
     init_us_2:cp :     18.40s CPU     18.53s WALL (    1517 calls)
     cegterg      :   2961.44s CPU   3006.78s WALL (     767 calls)

     Called by sum_band:
     sum_band:wei :      0.02s CPU      0.02s WALL (      20 calls)
     sum_band:loo :    390.51s CPU    395.53s WALL (      20 calls)
     sum_band:buf :      7.00s CPU      7.04s WALL (     740 calls)
     sum_band:ini :      8.62s CPU      8.67s WALL (     740 calls)

     Called by *egterg:
     cdiaghg      :     38.41s CPU     43.80s WALL (    5120 calls)
     cegterg:over :    170.34s CPU    171.72s WALL (    4380 calls)
     cegterg:upda :    282.93s CPU    285.74s WALL (    4380 calls)
     cegterg:last :    219.11s CPU    220.33s WALL (    1771 calls)
     cdiaghg:chol :      2.43s CPU      2.51s WALL (    5120 calls)
     cdiaghg:inve :      2.08s CPU      2.20s WALL (    5120 calls)
     cdiaghg:para :      3.29s CPU      3.43s WALL (   10240 calls)
     h_psi        :   2270.45s CPU   2304.89s WALL (    5184 calls)
     g_psi        :      9.69s CPU      9.78s WALL (    4380 calls)

     Called by h_psi:
     h_psi:calbec :    176.16s CPU    177.35s WALL (    5184 calls)
     vloc_psi     :   1885.03s CPU   1915.35s WALL (    5184 calls)
     add_vuspsi   :    188.85s CPU    189.92s WALL (    5184 calls)

     General routines
     calbec       :    176.12s CPU    177.33s WALL (    5184 calls)
     fft          :      0.58s CPU      0.61s WALL (     183 calls)
     ffts         :      0.20s CPU      0.20s WALL (      80 calls)
     fftw         :   1389.50s CPU   1412.99s WALL (  882084 calls)
 
     Parallel routines
 
     PWSCF        :      1h 2m CPU      1h 4m WALL

 
   This run was terminated on:  11:14:48  19Jan2024            

=------------------------------------------------------------------------------=
   JOB DONE.
=------------------------------------------------------------------------------=
