
     Program PWSCF v.7.0 starts on 25Jan2024 at 12: 1: 5 

     This program is part of the open-source Quantum ESPRESSO suite
     for quantum simulation of materials; please cite
         "P. Giannozzi et al., J. Phys.:Condens. Matter 21 395502 (2009);
         "P. Giannozzi et al., J. Phys.:Condens. Matter 29 465901 (2017);
         "P. Giannozzi et al., J. Chem. Phys. 152 154105 (2020);
          URL http://www.quantum-espresso.org", 
     in publications or presentations arising from this work. More details at
     http://www.quantum-espresso.org/quote

     Parallel version (MPI), running on    24 processors

     MPI processes distributed on     1 nodes
     R & G space division:  proc/nbgrp/npool/nimage =      24
     180403 MiB available memory on the printing compute node when the environment starts
 
     Reading input from fe-nosoc.scf.in
     Message from routine read_cards :
     DEPRECATED: no units specified in ATOMIC_POSITIONS card
     Message from routine read_cards :
     ATOMIC_POSITIONS: units set to alat

     Current dimensions of program PWSCF are:
     Max number of different atomic species (ntypx) = 10
     Max number of k-points (npk) =  40000
     Max angular momentum in pseudopotentials (lmaxx) =  4

     Subspace diagonalization in iterative solution of the eigenvalue problem:
     one sub-group per band group will be used
     scalapack distributed-memory algorithm (size of sub-group:  4*  4 procs)

 
     Parallelization info
     --------------------
     sticks:   dense  smooth     PW     G-vecs:    dense   smooth      PW
     Min          19      19      6                  264      264      47
     Max          20      20      7                  266      266      49
     Sum         467     467    151                 6363     6363    1157
 
     Using Slab Decomposition
 


     bravais-lattice index     =            3
     lattice parameter (alat)  =       5.4235  a.u.
     unit-cell volume          =      79.7644 (a.u.)^3
     number of atoms/cell      =            1
     number of atomic types    =            1
     number of electrons       =        16.00
     number of Kohn-Sham states=           12
     kinetic-energy cutoff     =      70.0000  Ry
     charge density cutoff     =     280.0000  Ry
     scf convergence threshold =      1.0E-08
     mixing beta               =       0.7000
     number of iterations used =            8  plain     mixing
     Exchange-correlation= PZ
                           (   1   1   0   0   0   0   0)

     celldm(1)=   5.423500  celldm(2)=   0.000000  celldm(3)=   0.000000
     celldm(4)=   0.000000  celldm(5)=   0.000000  celldm(6)=   0.000000

     crystal axes: (cart. coord. in units of alat)
               a(1) = (   0.500000   0.500000   0.500000 )  
               a(2) = (  -0.500000   0.500000   0.500000 )  
               a(3) = (  -0.500000  -0.500000   0.500000 )  

     reciprocal axes: (cart. coord. in units 2 pi/alat)
               b(1) = (  1.000000  0.000000  1.000000 )  
               b(2) = ( -1.000000  1.000000  0.000000 )  
               b(3) = (  0.000000 -1.000000  1.000000 )  


     PseudoPot. # 1 for Fe read from file:
     ./Fe.upf
     MD5 check sum: 7ad069ad321b5f02f901f6056a6f4a5d
     Pseudo is Norm-conserving + core correction, Zval = 16.0
     Generated using ONCVPSP code by D. R. Hamann
     Using radial grid of 1398 points,  6 beta functions with: 
                l(1) =   0
                l(2) =   0
                l(3) =   1
                l(4) =   1
                l(5) =   2
                l(6) =   2

     atomic species   valence    mass     pseudopotential
        Fe            16.00    55.84500     Fe( 1.00)

     Starting magnetic structure 
     atomic species   magnetization
        Fe           1.000

     48 Sym. Ops., with inversion, found



   Cartesian axes

     site n.     atom                  positions (alat units)
         1           Fe  tau(   1) = (   0.0000000   0.0000000   0.0000000  )

     number of k points=  2769  Fermi-Dirac smearing, width (Ry)=  0.0250

     Number of k-points >= 100: set verbosity='high' to print them.

     Dense  grid:     6363 G-vectors     FFT dimensions: (  25,  25,  25)

     Estimated max dynamical RAM per process >      34.16 MB

     Estimated total dynamical RAM >     819.85 MB
     Generating pointlists ...
     new r_m :   0.3572 (alat units)  1.9375 (a.u.) for type    1

     Initial potential from superposition of free atoms

     starting charge      15.9997, renormalised to      16.0000
     Starting wfcs are   10 randomized atomic wfcs +    2 random wfcs

     total cpu time spent up to now is       12.0 secs

     Self-consistent Calculation

     iteration #  1     ecut=    70.00 Ry     beta= 0.70
     Davidson diagonalization with overlap
     ethr =  1.00E-02,  avg # of iterations =  4.6

     total cpu time spent up to now is       74.8 secs

     total energy              =    -249.42956600 Ry
     estimated scf accuracy    <       3.60892467 Ry

     total magnetization       =     5.40 Bohr mag/cell
     absolute magnetization    =     5.40 Bohr mag/cell

     iteration #  2     ecut=    70.00 Ry     beta= 0.70
     Davidson diagonalization with overlap
     ethr =  1.00E-02,  avg # of iterations =  1.5

     total cpu time spent up to now is      111.9 secs

     total energy              =    -250.21789142 Ry
     estimated scf accuracy    <       0.72835928 Ry

     total magnetization       =     3.38 Bohr mag/cell
     absolute magnetization    =     3.40 Bohr mag/cell

     iteration #  3     ecut=    70.00 Ry     beta= 0.70
     Davidson diagonalization with overlap
     ethr =  4.55E-03,  avg # of iterations =  1.8

     total cpu time spent up to now is      151.8 secs

     total energy              =    -250.25843111 Ry
     estimated scf accuracy    <       0.45672047 Ry

     total magnetization       =     2.46 Bohr mag/cell
     absolute magnetization    =     2.55 Bohr mag/cell

     iteration #  4     ecut=    70.00 Ry     beta= 0.70
     Davidson diagonalization with overlap
     ethr =  2.85E-03,  avg # of iterations =  2.0

     total cpu time spent up to now is      192.9 secs

     total energy              =    -250.34909890 Ry
     estimated scf accuracy    <       0.00458325 Ry

     total magnetization       =     2.25 Bohr mag/cell
     absolute magnetization    =     2.34 Bohr mag/cell

     iteration #  5     ecut=    70.00 Ry     beta= 0.70
     Davidson diagonalization with overlap
     ethr =  2.86E-05,  avg # of iterations =  2.7

     total cpu time spent up to now is      242.1 secs

     total energy              =    -250.35153930 Ry
     estimated scf accuracy    <       0.00066951 Ry

     total magnetization       =     2.11 Bohr mag/cell
     absolute magnetization    =     2.19 Bohr mag/cell

     iteration #  6     ecut=    70.00 Ry     beta= 0.70
     Davidson diagonalization with overlap
     ethr =  4.18E-06,  avg # of iterations =  1.8

     total cpu time spent up to now is      281.2 secs

     total energy              =    -250.35193088 Ry
     estimated scf accuracy    <       0.00006713 Ry

     total magnetization       =     2.03 Bohr mag/cell
     absolute magnetization    =     2.09 Bohr mag/cell

     iteration #  7     ecut=    70.00 Ry     beta= 0.70
     Davidson diagonalization with overlap
     ethr =  4.20E-07,  avg # of iterations =  2.6

     total cpu time spent up to now is      336.5 secs

     total energy              =    -250.35201882 Ry
     estimated scf accuracy    <       0.00000558 Ry

     total magnetization       =     1.98 Bohr mag/cell
     absolute magnetization    =     2.04 Bohr mag/cell

     iteration #  8     ecut=    70.00 Ry     beta= 0.70
     Davidson diagonalization with overlap
     ethr =  3.49E-08,  avg # of iterations =  2.6

     total cpu time spent up to now is      403.4 secs

     total energy              =    -250.35202831 Ry
     estimated scf accuracy    <       0.00000037 Ry

     total magnetization       =     1.97 Bohr mag/cell
     absolute magnetization    =     2.02 Bohr mag/cell

     iteration #  9     ecut=    70.00 Ry     beta= 0.70
     Davidson diagonalization with overlap
     ethr =  2.34E-09,  avg # of iterations =  2.6

     total cpu time spent up to now is      464.6 secs

     total energy              =    -250.35202859 Ry
     estimated scf accuracy    <       0.00000005 Ry

     total magnetization       =     1.96 Bohr mag/cell
     absolute magnetization    =     2.02 Bohr mag/cell

     iteration # 10     ecut=    70.00 Ry     beta= 0.70
     Davidson diagonalization with overlap
     ethr =  3.29E-10,  avg # of iterations =  2.3
 
     Magnetic moment per site  (integrated on atomic sphere of radius R)
     atom   1 (R=0.357)  charge= 14.4311  magn=  1.9759

     total cpu time spent up to now is      525.0 secs

     End of self-consistent calculation

     Number of k-points >= 100: set verbosity='high' to print the bands.

     the Fermi energy is    17.4409 ev

!    total energy              =    -250.35202860 Ry
     estimated scf accuracy    <          1.4E-09 Ry
     smearing contrib. (-TS)   =      -0.03986746 Ry
     internal energy E=F+TS    =    -250.31216113 Ry

     The total energy is F=E-TS. E is the sum of the following terms:
     one-electron contribution =    -106.03997738 Ry
     hartree contribution      =      62.34317389 Ry
     xc contribution           =     -34.83629190 Ry
     ewald contribution        =    -171.77906575 Ry

     total magnetization       =     1.96 Bohr mag/cell
     absolute magnetization    =     2.02 Bohr mag/cell

     convergence has been achieved in  10 iterations

     Forces acting on atoms (cartesian axes, Ry/au):

     atom    1 type  1   force =     0.00000000    0.00000000    0.00000000

     Total force =     0.000000     Total SCF correction =     0.000000


     Computing stress (Cartesian axis) and pressure

          total   stress  (Ry/bohr**3)                   (kbar)     P=     -687.39
  -0.00467277   0.00000000  -0.00000000         -687.39        0.00       -0.00
   0.00000000  -0.00467277   0.00000000            0.00     -687.39        0.00
  -0.00000000   0.00000000  -0.00467277           -0.00        0.00     -687.39


     Writing all to output data dir ./Fe.save/
 
     init_run     :     10.76s CPU     11.89s WALL (       1 calls)
     electrons    :    461.24s CPU    513.13s WALL (       1 calls)
     forces       :      0.95s CPU      0.99s WALL (       1 calls)
     stress       :      2.50s CPU      2.55s WALL (       1 calls)

     Called by init_run:
     wfcinit      :     10.71s CPU     11.79s WALL (       1 calls)
     potinit      :      0.00s CPU      0.01s WALL (       1 calls)
     hinit0       :      0.04s CPU      0.08s WALL (       1 calls)

     Called by electrons:
     c_bands      :    433.66s CPU    481.89s WALL (      10 calls)
     sum_band     :     27.56s CPU     31.13s WALL (      10 calls)
     v_of_rho     :      0.00s CPU      0.00s WALL (      11 calls)
     mix_rho      :      0.00s CPU      0.00s WALL (      10 calls)

     Called by c_bands:
     init_us_2    :      2.52s CPU      2.79s WALL (  127374 calls)
     init_us_2:cp :      2.27s CPU      2.53s WALL (  127374 calls)
     cegterg      :    425.47s CPU    472.77s WALL (   55380 calls)

     Called by *egterg:
     cdiaghg      :    227.84s CPU    254.13s WALL (  191444 calls)
     h_psi        :    143.61s CPU    158.95s WALL (  196982 calls)
     g_psi        :      0.39s CPU      0.43s WALL (  136064 calls)

     Called by h_psi:
     h_psi:calbec :      3.60s CPU      4.02s WALL (  196982 calls)
     vloc_psi     :    136.73s CPU    151.29s WALL (  196982 calls)
     add_vuspsi   :      1.76s CPU      1.98s WALL (  196982 calls)

     General routines
     calbec       :      3.63s CPU      4.04s WALL (  224672 calls)
     fft          :      0.04s CPU      0.08s WALL (      61 calls)
     ffts         :      0.00s CPU      0.00s WALL (      20 calls)
     fftw         :    152.35s CPU    169.27s WALL ( 4214986 calls)
 
     Parallel routines
 
     PWSCF        :   8m 5.40s CPU  14m37.95s WALL

 
   This run was terminated on:  12:15:43  25Jan2024            

=------------------------------------------------------------------------------=
   JOB DONE.
=------------------------------------------------------------------------------=
