
     Program PWSCF v.7.0 starts on 16Jan2024 at 10:19:28 

     This program is part of the open-source Quantum ESPRESSO suite
     for quantum simulation of materials; please cite
         "P. Giannozzi et al., J. Phys.:Condens. Matter 21 395502 (2009);
         "P. Giannozzi et al., J. Phys.:Condens. Matter 29 465901 (2017);
         "P. Giannozzi et al., J. Chem. Phys. 152 154105 (2020);
          URL http://www.quantum-espresso.org", 
     in publications or presentations arising from this work. More details at
     http://www.quantum-espresso.org/quote

     Parallel version (MPI), running on    12 processors

     MPI processes distributed on     1 nodes
     R & G space division:  proc/nbgrp/npool/nimage =      12
     123181 MiB available memory on the printing compute node when the environment starts
 
     Reading input from cri3-exp-nosoc_90Ry_k18x18x1.scf.in

     Current dimensions of program PWSCF are:
     Max number of different atomic species (ntypx) = 10
     Max number of k-points (npk) =  40000
     Max angular momentum in pseudopotentials (lmaxx) =  4

     Subspace diagonalization in iterative solution of the eigenvalue problem:
     one sub-group per band group will be used
     scalapack distributed-memory algorithm (size of sub-group:  3*  3 procs)

 
     Parallelization info
     --------------------
     sticks:   dense  smooth     PW     G-vecs:    dense   smooth      PW
     Min         348     348     93                35048    35048    4841
     Max         349     349     94                35057    35057    4846
     Sum        4177    4177   1123               420595   420595   58117
 
     Using Slab Decomposition
 


     bravais-lattice index     =            4
     lattice parameter (alat)  =      12.9767  a.u.
     unit-cell volume          =    3645.8815 (a.u.)^3
     number of atoms/cell      =            8
     number of atomic types    =            2
     number of electrons       =       112.00
     number of Kohn-Sham states=           67
     kinetic-energy cutoff     =      90.0000  Ry
     charge density cutoff     =     360.0000  Ry
     scf convergence threshold =      1.0E-13
     mixing beta               =       0.7000
     number of iterations used =            8  plain     mixing
     Exchange-correlation= PZ
                           (   1   1   0   0   0   0   0)

     celldm(1)=  12.976749  celldm(2)=   0.000000  celldm(3)=   1.926523
     celldm(4)=   0.000000  celldm(5)=   0.000000  celldm(6)=   0.000000

     crystal axes: (cart. coord. in units of alat)
               a(1) = (   1.000000   0.000000   0.000000 )  
               a(2) = (  -0.500000   0.866025   0.000000 )  
               a(3) = (   0.000000   0.000000   1.926523 )  

     reciprocal axes: (cart. coord. in units 2 pi/alat)
               b(1) = (  1.000000  0.577350  0.000000 )  
               b(2) = (  0.000000  1.154701  0.000000 )  
               b(3) = (  0.000000  0.000000  0.519070 )  


     PseudoPot. # 1 for Cr read from file:
     ./Cr_Alejandro.upf
     MD5 check sum: 19f8874af457815d5c8e16c7b8c57f71
     Pseudo is Norm-conserving + core correction, Zval = 14.0
     Generated using ONCVPSP code by D. R. Hamann
     Using radial grid of 1600 points,  6 beta functions with: 
                l(1) =   0
                l(2) =   0
                l(3) =   1
                l(4) =   1
                l(5) =   2
                l(6) =   2

     PseudoPot. # 2 for Cr read from file:
     ./I_Alejandro.upf
     MD5 check sum: 19f8874af457815d5c8e16c7b8c57f71
     Pseudo is Norm-conserving + core correction, Zval = 14.0
     Generated using ONCVPSP code by D. R. Hamann
     Using radial grid of 1600 points,  6 beta functions with: 
                l(1) =   0
                l(2) =   0
                l(3) =   1
                l(4) =   1
                l(5) =   2
                l(6) =   2

     atomic species   valence    mass     pseudopotential
        Cr            14.00    51.99000     Cr( 1.00)
        I             14.00   126.90000     Cr( 1.00)

     Starting magnetic structure 
     atomic species   magnetization
        Cr           1.000
        I            0.000

     12 Sym. Ops., with inversion, found ( 6 have fractional translation)


                                    s                        frac. trans.

      isym =  1     identity                                     

 cryst.   s( 1) = (     1          0          0      )
                  (     0          1          0      )
                  (     0          0          1      )

 cart.    s( 1) = (  1.0000000  0.0000000  0.0000000 )
                  (  0.0000000  1.0000000  0.0000000 )
                  (  0.0000000  0.0000000  1.0000000 )


      isym =  2     180 deg rotation - cart. axis [0,1,0]        

 cryst.   s( 2) = (    -1          0          0      )
                  (     1          1          0      )
                  (     0          0         -1      )

 cart.    s( 2) = ( -1.0000000  0.0000000  0.0000000 )
                  (  0.0000000  1.0000000  0.0000000 )
                  (  0.0000000  0.0000000 -1.0000000 )


      isym =  3     120 deg rotation - cryst. axis [0,0,1]       

 cryst.   s( 3) = (     0          1          0      )
                  (    -1         -1          0      )
                  (     0          0          1      )

 cart.    s( 3) = ( -0.5000000 -0.8660254  0.0000000 )
                  (  0.8660254 -0.5000000  0.0000000 )
                  (  0.0000000  0.0000000  1.0000000 )


      isym =  4     120 deg rotation - cryst. axis [0,0,-1]      

 cryst.   s( 4) = (    -1         -1          0      )
                  (     1          0          0      )
                  (     0          0          1      )

 cart.    s( 4) = ( -0.5000000  0.8660254  0.0000000 )
                  ( -0.8660254 -0.5000000  0.0000000 )
                  (  0.0000000  0.0000000  1.0000000 )


      isym =  5     180 deg rotation - cryst. axis [1,-1,0]      

 cryst.   s( 5) = (     0         -1          0      )
                  (    -1          0          0      )
                  (     0          0         -1      )

 cart.    s( 5) = (  0.5000000 -0.8660254  0.0000000 )
                  ( -0.8660254 -0.5000000  0.0000000 )
                  (  0.0000000  0.0000000 -1.0000000 )


      isym =  6     180 deg rotation - cryst. axis [2,1,0]       

 cryst.   s( 6) = (     1          1          0      )
                  (     0         -1          0      )
                  (     0          0         -1      )

 cart.    s( 6) = (  0.5000000  0.8660254  0.0000000 )
                  (  0.8660254 -0.5000000  0.0000000 )
                  (  0.0000000  0.0000000 -1.0000000 )


      isym =  7     inversion                                    

 cryst.   s( 7) = (    -1          0          0      )    f =( -0.3333333 )
                  (     0         -1          0      )       (  0.3333333 )
                  (     0          0         -1      )       (  0.0000000 )

 cart.    s( 7) = ( -1.0000000  0.0000000  0.0000000 )    f =( -0.5000000 )
                  (  0.0000000 -1.0000000  0.0000000 )       (  0.2886751 )
                  (  0.0000000  0.0000000 -1.0000000 )       (  0.0000000 )


      isym =  8     inv. 180 deg rotation - cart. axis [0,1,0]   

 cryst.   s( 8) = (     1          0          0      )    f =( -0.3333333 )
                  (    -1         -1          0      )       (  0.3333333 )
                  (     0          0          1      )       (  0.0000000 )

 cart.    s( 8) = (  1.0000000  0.0000000  0.0000000 )    f =( -0.5000000 )
                  (  0.0000000 -1.0000000  0.0000000 )       (  0.2886751 )
                  (  0.0000000  0.0000000  1.0000000 )       (  0.0000000 )


      isym =  9     inv. 120 deg rotation - cryst. axis [0,0,1]  

 cryst.   s( 9) = (     0         -1          0      )    f =( -0.3333333 )
                  (     1          1          0      )       (  0.3333333 )
                  (     0          0         -1      )       (  0.0000000 )

 cart.    s( 9) = (  0.5000000  0.8660254  0.0000000 )    f =( -0.5000000 )
                  ( -0.8660254  0.5000000  0.0000000 )       (  0.2886751 )
                  (  0.0000000  0.0000000 -1.0000000 )       (  0.0000000 )


      isym = 10     inv. 120 deg rotation - cryst. axis [0,0,-1] 

 cryst.   s(10) = (     1          1          0      )    f =( -0.3333333 )
                  (    -1          0          0      )       (  0.3333333 )
                  (     0          0         -1      )       (  0.0000000 )

 cart.    s(10) = (  0.5000000 -0.8660254  0.0000000 )    f =( -0.5000000 )
                  (  0.8660254  0.5000000  0.0000000 )       (  0.2886751 )
                  (  0.0000000  0.0000000 -1.0000000 )       (  0.0000000 )


      isym = 11     inv. 180 deg rotation - cryst. axis [1,-1,0] 

 cryst.   s(11) = (     0          1          0      )    f =( -0.3333333 )
                  (     1          0          0      )       (  0.3333333 )
                  (     0          0          1      )       (  0.0000000 )

 cart.    s(11) = ( -0.5000000  0.8660254  0.0000000 )    f =( -0.5000000 )
                  (  0.8660254  0.5000000  0.0000000 )       (  0.2886751 )
                  (  0.0000000  0.0000000  1.0000000 )       (  0.0000000 )


      isym = 12     inv. 180 deg rotation - cryst. axis [2,1,0]  

 cryst.   s(12) = (    -1         -1          0      )    f =( -0.3333333 )
                  (     0          1          0      )       (  0.3333333 )
                  (     0          0          1      )       (  0.0000000 )

 cart.    s(12) = ( -0.5000000 -0.8660254  0.0000000 )    f =( -0.5000000 )
                  ( -0.8660254  0.5000000  0.0000000 )       (  0.2886751 )
                  (  0.0000000  0.0000000  1.0000000 )       (  0.0000000 )


     point group D_3d (-3m) 
     there are  6 classes
     the character table:

       E     2C3   3C2'  i     2S6   3s_d 
A_1g   1.00  1.00  1.00  1.00  1.00  1.00
A_2g   1.00  1.00 -1.00  1.00  1.00 -1.00
E_g    2.00 -1.00  0.00  2.00 -1.00  0.00
A_1u   1.00  1.00  1.00 -1.00 -1.00 -1.00
A_2u   1.00  1.00 -1.00 -1.00 -1.00  1.00
E_u    2.00 -1.00  0.00 -2.00  1.00  0.00

     the symmetry operations in each class and the name of the first element:

     E        1
          identity                                               
     2C3      3    4
          120 deg rotation - cryst. axis [0,0,1]                 
     3C2'     2    6    5
          180 deg rotation - cart. axis [0,1,0]                  
     i        7
          inversion                                              
     2S6      9   10
          inv. 120 deg rotation - cryst. axis [0,0,1]            
     3s_d     8   12   11
          inv. 180 deg rotation - cart. axis [0,1,0]             

   Cartesian axes

     site n.     atom                  positions (alat units)
         1           Cr  tau(   1) = (   0.0000000   0.0000000   0.0000000  )
         2           Cr  tau(   2) = (   0.0000000   0.5773503   0.0000000  )
         3           I   tau(   3) = (  -0.1753225   0.8510331   0.2277694  )
         4           I   tau(   4) = (   0.3246775   0.5923426   0.2277694  )
         5           I   tau(   5) = (  -0.1493550   0.2886751   0.2277694  )
         6           I   tau(   6) = (  -0.3246775   0.5923426  -0.2277694  )
         7           I   tau(   7) = (   0.1753225   0.8510331  -0.2277694  )
         8           I   tau(   8) = (   0.1493550   0.2886751  -0.2277694  )

   Crystallographic axes

     site n.     atom                  positions (cryst. coord.)
         1           Cr  tau(   1) = (  0.0000000  0.0000000  0.0000000  )
         2           Cr  tau(   2) = (  0.3333333  0.6666667  0.0000000  )
         3           I   tau(   3) = (  0.3160217  0.9826883  0.1182283  )
         4           I   tau(   4) = (  0.6666667  0.6839783  0.1182283  )
         5           I   tau(   5) = (  0.0173117  0.3333333  0.1182283  )
         6           I   tau(   6) = (  0.0173117  0.6839783 -0.1182283  )
         7           I   tau(   7) = (  0.6666667  0.9826883 -0.1182283  )
         8           I   tau(   8) = (  0.3160217  0.3333333 -0.1182283  )

     number of k points=    37  Gaussian smearing, width (Ry)=  0.0050
                       cart. coord. in units 2pi/alat
        k(    1) = (   0.0000000   0.0000000   0.0000000), wk =   0.0030864
        k(    2) = (   0.0000000   0.0641500   0.0000000), wk =   0.0185185
        k(    3) = (   0.0000000   0.1283001   0.0000000), wk =   0.0185185
        k(    4) = (   0.0000000   0.1924501   0.0000000), wk =   0.0185185
        k(    5) = (   0.0000000   0.2566001   0.0000000), wk =   0.0185185
        k(    6) = (   0.0000000   0.3207501   0.0000000), wk =   0.0185185
        k(    7) = (   0.0000000   0.3849002   0.0000000), wk =   0.0185185
        k(    8) = (   0.0000000   0.4490502   0.0000000), wk =   0.0185185
        k(    9) = (   0.0000000   0.5132002   0.0000000), wk =   0.0185185
        k(   10) = (   0.0000000  -0.5773503   0.0000000), wk =   0.0092593
        k(   11) = (   0.0555556   0.0962250   0.0000000), wk =   0.0185185
        k(   12) = (   0.0555556   0.1603751   0.0000000), wk =   0.0370370
        k(   13) = (   0.0555556   0.2245251   0.0000000), wk =   0.0370370
        k(   14) = (   0.0555556   0.2886751   0.0000000), wk =   0.0370370
        k(   15) = (   0.0555556   0.3528252   0.0000000), wk =   0.0370370
        k(   16) = (   0.0555556   0.4169752   0.0000000), wk =   0.0370370
        k(   17) = (   0.0555556   0.4811252   0.0000000), wk =   0.0370370
        k(   18) = (   0.0555556   0.5452753   0.0000000), wk =   0.0370370
        k(   19) = (   0.1111111   0.1924501   0.0000000), wk =   0.0185185
        k(   20) = (   0.1111111   0.2566001   0.0000000), wk =   0.0370370
        k(   21) = (   0.1111111   0.3207501   0.0000000), wk =   0.0370370
        k(   22) = (   0.1111111   0.3849002   0.0000000), wk =   0.0370370
        k(   23) = (   0.1111111   0.4490502   0.0000000), wk =   0.0370370
        k(   24) = (   0.1111111   0.5132002   0.0000000), wk =   0.0370370
        k(   25) = (   0.1111111   0.5773503   0.0000000), wk =   0.0185185
        k(   26) = (   0.1666667   0.2886751   0.0000000), wk =   0.0185185
        k(   27) = (   0.1666667   0.3528252   0.0000000), wk =   0.0370370
        k(   28) = (   0.1666667   0.4169752   0.0000000), wk =   0.0370370
        k(   29) = (   0.1666667   0.4811252   0.0000000), wk =   0.0370370
        k(   30) = (   0.1666667   0.5452753   0.0000000), wk =   0.0370370
        k(   31) = (   0.2222222   0.3849002   0.0000000), wk =   0.0185185
        k(   32) = (   0.2222222   0.4490502   0.0000000), wk =   0.0370370
        k(   33) = (   0.2222222   0.5132002   0.0000000), wk =   0.0370370
        k(   34) = (   0.2222222   0.5773503   0.0000000), wk =   0.0185185
        k(   35) = (   0.2777778   0.4811252   0.0000000), wk =   0.0185185
        k(   36) = (   0.2777778   0.5452753   0.0000000), wk =   0.0370370
        k(   37) = (   0.3333333   0.5773503   0.0000000), wk =   0.0061728

                       cryst. coord.
        k(    1) = (   0.0000000   0.0000000   0.0000000), wk =   0.0030864
        k(    2) = (   0.0000000   0.0555556   0.0000000), wk =   0.0185185
        k(    3) = (   0.0000000   0.1111111   0.0000000), wk =   0.0185185
        k(    4) = (   0.0000000   0.1666667   0.0000000), wk =   0.0185185
        k(    5) = (   0.0000000   0.2222222   0.0000000), wk =   0.0185185
        k(    6) = (   0.0000000   0.2777778   0.0000000), wk =   0.0185185
        k(    7) = (   0.0000000   0.3333333   0.0000000), wk =   0.0185185
        k(    8) = (   0.0000000   0.3888889   0.0000000), wk =   0.0185185
        k(    9) = (   0.0000000   0.4444444   0.0000000), wk =   0.0185185
        k(   10) = (   0.0000000  -0.5000000   0.0000000), wk =   0.0092593
        k(   11) = (   0.0555556   0.0555556   0.0000000), wk =   0.0185185
        k(   12) = (   0.0555556   0.1111111   0.0000000), wk =   0.0370370
        k(   13) = (   0.0555556   0.1666667   0.0000000), wk =   0.0370370
        k(   14) = (   0.0555556   0.2222222   0.0000000), wk =   0.0370370
        k(   15) = (   0.0555556   0.2777778   0.0000000), wk =   0.0370370
        k(   16) = (   0.0555556   0.3333333   0.0000000), wk =   0.0370370
        k(   17) = (   0.0555556   0.3888889   0.0000000), wk =   0.0370370
        k(   18) = (   0.0555556   0.4444444   0.0000000), wk =   0.0370370
        k(   19) = (   0.1111111   0.1111111   0.0000000), wk =   0.0185185
        k(   20) = (   0.1111111   0.1666667   0.0000000), wk =   0.0370370
        k(   21) = (   0.1111111   0.2222222   0.0000000), wk =   0.0370370
        k(   22) = (   0.1111111   0.2777778   0.0000000), wk =   0.0370370
        k(   23) = (   0.1111111   0.3333333   0.0000000), wk =   0.0370370
        k(   24) = (   0.1111111   0.3888889   0.0000000), wk =   0.0370370
        k(   25) = (   0.1111111   0.4444444   0.0000000), wk =   0.0185185
        k(   26) = (   0.1666667   0.1666667   0.0000000), wk =   0.0185185
        k(   27) = (   0.1666667   0.2222222   0.0000000), wk =   0.0370370
        k(   28) = (   0.1666667   0.2777778   0.0000000), wk =   0.0370370
        k(   29) = (   0.1666667   0.3333333   0.0000000), wk =   0.0370370
        k(   30) = (   0.1666667   0.3888889   0.0000000), wk =   0.0370370
        k(   31) = (   0.2222222   0.2222222   0.0000000), wk =   0.0185185
        k(   32) = (   0.2222222   0.2777778   0.0000000), wk =   0.0370370
        k(   33) = (   0.2222222   0.3333333   0.0000000), wk =   0.0370370
        k(   34) = (   0.2222222   0.3888889   0.0000000), wk =   0.0185185
        k(   35) = (   0.2777778   0.2777778   0.0000000), wk =   0.0185185
        k(   36) = (   0.2777778   0.3333333   0.0000000), wk =   0.0370370
        k(   37) = (   0.3333333   0.3333333   0.0000000), wk =   0.0061728

     Dense  grid:   420595 G-vectors     FFT dimensions: (  81,  81, 160)

     Dynamical RAM for                 wfc:       4.48 MB

     Dynamical RAM for     wfc (w. buffer):     335.84 MB

     Dynamical RAM for           str. fact:       1.07 MB

     Dynamical RAM for           local pot:       0.00 MB

     Dynamical RAM for          nlocal pot:       9.62 MB

     Dynamical RAM for                qrad:       3.05 MB

     Dynamical RAM for          rho,v,vnew:       7.41 MB

     Dynamical RAM for               rhoin:       2.47 MB

     Dynamical RAM for            rho*nmix:      17.11 MB

     Dynamical RAM for           G-vectors:       2.27 MB

     Dynamical RAM for          h,s,v(r/c):       0.09 MB

     Dynamical RAM for          <psi|beta>:       0.15 MB

     Dynamical RAM for                 psi:       8.96 MB

     Dynamical RAM for                hpsi:       8.96 MB

     Dynamical RAM for      wfcinit/wfcrot:      10.84 MB

     Estimated static dynamical RAM per process >     367.54 MB

     Estimated max dynamical RAM per process >     402.81 MB

     Estimated total dynamical RAM >       4.72 GB
 ----2D----2D----2D----2D----2D----2D----2D----2D----2D----2D----2D----2D
  The code is running with the 2D cutoff
  Please refer to:
  Sohier, T., Calandra, M., & Mauri, F. (2017), 
  Density functional perturbation theory for gated two-dimensional heterostructu
 res:
  Theoretical developments and application to flexural phonons in graphene.
  Physical Review B, 96(7), 75448. https://doi.org/10.1103/PhysRevB.96.075448
 ----2D----2D----2D----2D----2D----2D----2D----2D----2D----2D----2D----2D
     Generating pointlists ...
     new r_m :   0.1637 (alat units)  2.1245 (a.u.) for type    1
     new r_m :   0.1637 (alat units)  2.1245 (a.u.) for type    2

     Initial potential from superposition of free atoms

     starting charge     111.9912, renormalised to     112.0000

     negative rho (up, down):  1.761E-07 1.371E-07
     Starting wfcs are   80 randomized atomic wfcs

     total cpu time spent up to now is       19.7 secs

     Self-consistent Calculation

     iteration #  1     ecut=    90.00 Ry     beta= 0.70
     Davidson diagonalization with overlap

---- Real-time Memory Report at c_bands before calling an iterative solver
           516 MiB given to the printing process from OS
             0 MiB allocation reported by mallinfo(arena+hblkhd)
        114562 MiB available memory on the node where the printing process lives
------------------
     c_bands:  2 eigenvalues not converged
     c_bands:  3 eigenvalues not converged
     c_bands:  4 eigenvalues not converged
     c_bands:  4 eigenvalues not converged
     c_bands:  5 eigenvalues not converged
     c_bands:  4 eigenvalues not converged
     c_bands:  2 eigenvalues not converged
     c_bands:  5 eigenvalues not converged
     c_bands:  1 eigenvalues not converged
     c_bands:  5 eigenvalues not converged
     c_bands:  5 eigenvalues not converged
     c_bands:  1 eigenvalues not converged
     c_bands:  1 eigenvalues not converged
     c_bands:  1 eigenvalues not converged
     c_bands:  5 eigenvalues not converged
     c_bands:  1 eigenvalues not converged
     c_bands:  5 eigenvalues not converged
     c_bands:  2 eigenvalues not converged
     c_bands:  3 eigenvalues not converged
     c_bands:  3 eigenvalues not converged
     c_bands:  4 eigenvalues not converged
     c_bands:  1 eigenvalues not converged
     c_bands:  1 eigenvalues not converged
     ethr =  5.00E-06,  avg # of iterations = 19.1

     total cpu time spent up to now is      500.3 secs

     total energy              =   -1415.77267367 Ry
     estimated scf accuracy    <       8.48836902 Ry

     total magnetization       =    10.10 Bohr mag/cell
     absolute magnetization    =    11.55 Bohr mag/cell

     iteration #  2     ecut=    90.00 Ry     beta= 0.70
     Davidson diagonalization with overlap

---- Real-time Memory Report at c_bands before calling an iterative solver
           555 MiB given to the printing process from OS
             0 MiB allocation reported by mallinfo(arena+hblkhd)
        106313 MiB available memory on the node where the printing process lives
------------------
     ethr =  7.58E-03,  avg # of iterations =  7.6

     total cpu time spent up to now is      703.7 secs

     total energy              =   -1413.77402016 Ry
     estimated scf accuracy    <      85.65434409 Ry

     total magnetization       =    -2.71 Bohr mag/cell
     absolute magnetization    =     3.57 Bohr mag/cell

     iteration #  3     ecut=    90.00 Ry     beta= 0.70
     Davidson diagonalization with overlap

---- Real-time Memory Report at c_bands before calling an iterative solver
           558 MiB given to the printing process from OS
             0 MiB allocation reported by mallinfo(arena+hblkhd)
        106175 MiB available memory on the node where the printing process lives
------------------
     ethr =  7.58E-03,  avg # of iterations =  7.2

     total cpu time spent up to now is      883.6 secs

     total energy              =   -1419.20206758 Ry
     estimated scf accuracy    <       0.91296291 Ry

     total magnetization       =     2.58 Bohr mag/cell
     absolute magnetization    =    13.95 Bohr mag/cell

     iteration #  4     ecut=    90.00 Ry     beta= 0.70
     Davidson diagonalization with overlap

---- Real-time Memory Report at c_bands before calling an iterative solver
           560 MiB given to the printing process from OS
             0 MiB allocation reported by mallinfo(arena+hblkhd)
        106038 MiB available memory on the node where the printing process lives
------------------
     ethr =  8.15E-04,  avg # of iterations =  8.4

     total cpu time spent up to now is     1076.5 secs

     total energy              =   -1419.90647025 Ry
     estimated scf accuracy    <       2.59608920 Ry

     total magnetization       =    -7.85 Bohr mag/cell
     absolute magnetization    =    22.44 Bohr mag/cell

     iteration #  5     ecut=    90.00 Ry     beta= 0.70
     Davidson diagonalization with overlap

---- Real-time Memory Report at c_bands before calling an iterative solver
           563 MiB given to the printing process from OS
             0 MiB allocation reported by mallinfo(arena+hblkhd)
        105930 MiB available memory on the node where the printing process lives
------------------
     ethr =  8.15E-04,  avg # of iterations =  3.2

     total cpu time spent up to now is     1218.2 secs

     total energy              =   -1420.28230132 Ry
     estimated scf accuracy    <       0.62962650 Ry

     total magnetization       =   -13.70 Bohr mag/cell
     absolute magnetization    =    26.23 Bohr mag/cell

     iteration #  6     ecut=    90.00 Ry     beta= 0.70
     Davidson diagonalization with overlap

---- Real-time Memory Report at c_bands before calling an iterative solver
           568 MiB given to the printing process from OS
             0 MiB allocation reported by mallinfo(arena+hblkhd)
        105809 MiB available memory on the node where the printing process lives
------------------
     ethr =  5.62E-04,  avg # of iterations =  1.4

     total cpu time spent up to now is     1330.6 secs

     total energy              =   -1420.16588610 Ry
     estimated scf accuracy    <       0.47169096 Ry

     total magnetization       =   -16.19 Bohr mag/cell
     absolute magnetization    =    29.25 Bohr mag/cell

     iteration #  7     ecut=    90.00 Ry     beta= 0.70
     Davidson diagonalization with overlap

---- Real-time Memory Report at c_bands before calling an iterative solver
           571 MiB given to the printing process from OS
             0 MiB allocation reported by mallinfo(arena+hblkhd)
        105762 MiB available memory on the node where the printing process lives
------------------
     ethr =  4.21E-04,  avg # of iterations =  1.3

     negative rho (up, down):  4.687E-08 1.694E-08

     total cpu time spent up to now is     1434.6 secs

     total energy              =   -1420.39787589 Ry
     estimated scf accuracy    <       0.75031093 Ry

     total magnetization       =   -14.13 Bohr mag/cell
     absolute magnetization    =    27.67 Bohr mag/cell

     iteration #  8     ecut=    90.00 Ry     beta= 0.70
     Davidson diagonalization with overlap

---- Real-time Memory Report at c_bands before calling an iterative solver
           574 MiB given to the printing process from OS
             0 MiB allocation reported by mallinfo(arena+hblkhd)
        107624 MiB available memory on the node where the printing process lives
------------------
     c_bands:  1 eigenvalues not converged
     ethr =  4.21E-04,  avg # of iterations =  5.6

     negative rho (up, down):  1.950E-05 0.000E+00

     total cpu time spent up to now is     1548.6 secs

     total energy              =   -1420.63815072 Ry
     estimated scf accuracy    <       0.55246206 Ry

     total magnetization       =   -20.15 Bohr mag/cell
     absolute magnetization    =    33.93 Bohr mag/cell

     iteration #  9     ecut=    90.00 Ry     beta= 0.70
     Davidson diagonalization with overlap

---- Real-time Memory Report at c_bands before calling an iterative solver
           579 MiB given to the printing process from OS
             0 MiB allocation reported by mallinfo(arena+hblkhd)
        107587 MiB available memory on the node where the printing process lives
------------------
     ethr =  4.21E-04,  avg # of iterations =  3.5

     negative rho (up, down):  1.831E-06 0.000E+00

     total cpu time spent up to now is     1634.4 secs

     total energy              =   -1420.76518680 Ry
     estimated scf accuracy    <       0.12394433 Ry

     total magnetization       =   -20.81 Bohr mag/cell
     absolute magnetization    =    33.70 Bohr mag/cell

     iteration # 10     ecut=    90.00 Ry     beta= 0.70
     Davidson diagonalization with overlap

---- Real-time Memory Report at c_bands before calling an iterative solver
           581 MiB given to the printing process from OS
             0 MiB allocation reported by mallinfo(arena+hblkhd)
        107569 MiB available memory on the node where the printing process lives
------------------
     c_bands:  1 eigenvalues not converged
     ethr =  1.11E-04,  avg # of iterations =  7.5

     negative rho (up, down):  1.076E-07 0.000E+00

     total cpu time spent up to now is     1738.0 secs

     total energy              =   -1420.78326310 Ry
     estimated scf accuracy    <       0.03740406 Ry

     total magnetization       =   -20.50 Bohr mag/cell
     absolute magnetization    =    33.77 Bohr mag/cell

     iteration # 11     ecut=    90.00 Ry     beta= 0.70
     Davidson diagonalization with overlap

---- Real-time Memory Report at c_bands before calling an iterative solver
           583 MiB given to the printing process from OS
             0 MiB allocation reported by mallinfo(arena+hblkhd)
        107562 MiB available memory on the node where the printing process lives
------------------
     c_bands:  1 eigenvalues not converged
     c_bands:  1 eigenvalues not converged
     c_bands:  1 eigenvalues not converged
     c_bands:  1 eigenvalues not converged
     c_bands:  1 eigenvalues not converged
     c_bands:  1 eigenvalues not converged
     c_bands:  2 eigenvalues not converged
     c_bands:  1 eigenvalues not converged
     c_bands:  2 eigenvalues not converged
     c_bands:  1 eigenvalues not converged
     c_bands:  2 eigenvalues not converged
     c_bands:  1 eigenvalues not converged
     c_bands:  2 eigenvalues not converged
     ethr =  3.34E-05,  avg # of iterations =  9.1

     total cpu time spent up to now is     1842.5 secs

     total energy              =   -1420.80495570 Ry
     estimated scf accuracy    <       0.04951445 Ry

     total magnetization       =   -20.48 Bohr mag/cell
     absolute magnetization    =    33.92 Bohr mag/cell

     iteration # 12     ecut=    90.00 Ry     beta= 0.70
     Davidson diagonalization with overlap

---- Real-time Memory Report at c_bands before calling an iterative solver
           583 MiB given to the printing process from OS
             0 MiB allocation reported by mallinfo(arena+hblkhd)
        107560 MiB available memory on the node where the printing process lives
------------------
     c_bands:  3 eigenvalues not converged
     c_bands:  1 eigenvalues not converged
     ethr =  3.34E-05,  avg # of iterations =  4.7

     total cpu time spent up to now is     1941.9 secs

     total energy              =   -1420.80362298 Ry
     estimated scf accuracy    <       0.05114290 Ry

     total magnetization       =   -20.32 Bohr mag/cell
     absolute magnetization    =    33.71 Bohr mag/cell

     iteration # 13     ecut=    90.00 Ry     beta= 0.70
     Davidson diagonalization with overlap

---- Real-time Memory Report at c_bands before calling an iterative solver
           583 MiB given to the printing process from OS
             0 MiB allocation reported by mallinfo(arena+hblkhd)
        107547 MiB available memory on the node where the printing process lives
------------------
     ethr =  3.34E-05,  avg # of iterations =  1.4

     total cpu time spent up to now is     2017.1 secs

     total energy              =   -1420.80304869 Ry
     estimated scf accuracy    <       0.03019655 Ry

     total magnetization       =   -20.19 Bohr mag/cell
     absolute magnetization    =    33.76 Bohr mag/cell

     iteration # 14     ecut=    90.00 Ry     beta= 0.70
     Davidson diagonalization with overlap

---- Real-time Memory Report at c_bands before calling an iterative solver
           583 MiB given to the printing process from OS
             0 MiB allocation reported by mallinfo(arena+hblkhd)
        107535 MiB available memory on the node where the printing process lives
------------------
     ethr =  2.70E-05,  avg # of iterations =  1.0

     total cpu time spent up to now is     2090.5 secs

     total energy              =   -1420.80283444 Ry
     estimated scf accuracy    <       0.01765563 Ry

     total magnetization       =   -20.16 Bohr mag/cell
     absolute magnetization    =    33.81 Bohr mag/cell

     iteration # 15     ecut=    90.00 Ry     beta= 0.70
     Davidson diagonalization with overlap

---- Real-time Memory Report at c_bands before calling an iterative solver
           583 MiB given to the printing process from OS
             0 MiB allocation reported by mallinfo(arena+hblkhd)
        107540 MiB available memory on the node where the printing process lives
------------------
     ethr =  1.58E-05,  avg # of iterations =  1.4

     total cpu time spent up to now is     2164.8 secs

     total energy              =   -1420.80181393 Ry
     estimated scf accuracy    <       0.00925503 Ry

     total magnetization       =   -20.15 Bohr mag/cell
     absolute magnetization    =    33.84 Bohr mag/cell

     iteration # 16     ecut=    90.00 Ry     beta= 0.70
     Davidson diagonalization with overlap

---- Real-time Memory Report at c_bands before calling an iterative solver
           583 MiB given to the printing process from OS
             0 MiB allocation reported by mallinfo(arena+hblkhd)
        107535 MiB available memory on the node where the printing process lives
------------------
     c_bands:  1 eigenvalues not converged
     c_bands:  2 eigenvalues not converged
     c_bands:  2 eigenvalues not converged
     c_bands:  2 eigenvalues not converged
     c_bands:  3 eigenvalues not converged
     c_bands:  1 eigenvalues not converged
     c_bands:  1 eigenvalues not converged
     c_bands:  2 eigenvalues not converged
     c_bands:  1 eigenvalues not converged
     c_bands:  2 eigenvalues not converged
     c_bands:  2 eigenvalues not converged
     c_bands:  2 eigenvalues not converged
     c_bands:  2 eigenvalues not converged
     c_bands:  1 eigenvalues not converged
     c_bands:  1 eigenvalues not converged
     c_bands:  3 eigenvalues not converged
     c_bands:  2 eigenvalues not converged
     c_bands:  2 eigenvalues not converged
     c_bands:  1 eigenvalues not converged
     c_bands:  2 eigenvalues not converged
     ethr =  8.26E-06,  avg # of iterations = 11.2

     total cpu time spent up to now is     2288.9 secs

     total energy              =   -1420.80334411 Ry
     estimated scf accuracy    <       0.00041969 Ry

     total magnetization       =   -20.10 Bohr mag/cell
     absolute magnetization    =    33.82 Bohr mag/cell

     iteration # 17     ecut=    90.00 Ry     beta= 0.70
     Davidson diagonalization with overlap

---- Real-time Memory Report at c_bands before calling an iterative solver
           583 MiB given to the printing process from OS
             0 MiB allocation reported by mallinfo(arena+hblkhd)
        107520 MiB available memory on the node where the printing process lives
------------------
     c_bands:  2 eigenvalues not converged
     c_bands:  4 eigenvalues not converged
     c_bands:  2 eigenvalues not converged
     c_bands:  2 eigenvalues not converged
     c_bands:  4 eigenvalues not converged
     c_bands:  3 eigenvalues not converged
     c_bands:  2 eigenvalues not converged
     c_bands:  4 eigenvalues not converged
     c_bands:  2 eigenvalues not converged
     c_bands:  2 eigenvalues not converged
     c_bands:  3 eigenvalues not converged
     c_bands:  3 eigenvalues not converged
     c_bands:  3 eigenvalues not converged
     c_bands:  3 eigenvalues not converged
     c_bands:  1 eigenvalues not converged
     c_bands:  4 eigenvalues not converged
     c_bands:  5 eigenvalues not converged
     c_bands:  5 eigenvalues not converged
     c_bands:  3 eigenvalues not converged
     c_bands:  4 eigenvalues not converged
     c_bands:  3 eigenvalues not converged
     c_bands:  4 eigenvalues not converged
     c_bands:  4 eigenvalues not converged
     c_bands:  3 eigenvalues not converged
     c_bands:  5 eigenvalues not converged
     c_bands:  5 eigenvalues not converged
     c_bands:  4 eigenvalues not converged
     c_bands:  2 eigenvalues not converged
     c_bands:  3 eigenvalues not converged
     c_bands:  5 eigenvalues not converged
     c_bands:  4 eigenvalues not converged
     c_bands:  2 eigenvalues not converged
     c_bands:  3 eigenvalues not converged
     c_bands:  3 eigenvalues not converged
     c_bands:  2 eigenvalues not converged
     c_bands:  3 eigenvalues not converged
     c_bands:  2 eigenvalues not converged
     ethr =  3.75E-07,  avg # of iterations = 15.8

     total cpu time spent up to now is     2466.4 secs

     total energy              =   -1420.80359831 Ry
     estimated scf accuracy    <       0.00056822 Ry

     total magnetization       =   -20.12 Bohr mag/cell
     absolute magnetization    =    33.80 Bohr mag/cell

     iteration # 18     ecut=    90.00 Ry     beta= 0.70
     Davidson diagonalization with overlap

---- Real-time Memory Report at c_bands before calling an iterative solver
           585 MiB given to the printing process from OS
             0 MiB allocation reported by mallinfo(arena+hblkhd)
        107184 MiB available memory on the node where the printing process lives
------------------
     c_bands:  2 eigenvalues not converged
     c_bands:  2 eigenvalues not converged
     c_bands:  2 eigenvalues not converged
     c_bands:  2 eigenvalues not converged
     c_bands:  3 eigenvalues not converged
     c_bands:  1 eigenvalues not converged
     c_bands:  1 eigenvalues not converged
     c_bands:  2 eigenvalues not converged
     c_bands:  2 eigenvalues not converged
     c_bands:  3 eigenvalues not converged
     c_bands:  1 eigenvalues not converged
     c_bands:  3 eigenvalues not converged
     c_bands:  2 eigenvalues not converged
     c_bands:  1 eigenvalues not converged
     c_bands:  2 eigenvalues not converged
     c_bands:  3 eigenvalues not converged
     c_bands:  2 eigenvalues not converged
     c_bands:  1 eigenvalues not converged
     c_bands:  2 eigenvalues not converged
     c_bands:  2 eigenvalues not converged
     c_bands:  2 eigenvalues not converged
     c_bands:  3 eigenvalues not converged
     c_bands:  1 eigenvalues not converged
     c_bands:  3 eigenvalues not converged
     c_bands:  2 eigenvalues not converged
     c_bands:  2 eigenvalues not converged
     c_bands:  1 eigenvalues not converged
     c_bands:  1 eigenvalues not converged
     c_bands:  3 eigenvalues not converged
     c_bands:  4 eigenvalues not converged
     ethr =  3.75E-07,  avg # of iterations =  9.7

     total cpu time spent up to now is     2533.9 secs

     total energy              =   -1420.80356807 Ry
     estimated scf accuracy    <       0.00021869 Ry

     total magnetization       =   -20.13 Bohr mag/cell
     absolute magnetization    =    33.79 Bohr mag/cell

     iteration # 19     ecut=    90.00 Ry     beta= 0.70
     Davidson diagonalization with overlap

---- Real-time Memory Report at c_bands before calling an iterative solver
           585 MiB given to the printing process from OS
             0 MiB allocation reported by mallinfo(arena+hblkhd)
        109421 MiB available memory on the node where the printing process lives
------------------
     c_bands:  2 eigenvalues not converged
     c_bands:  1 eigenvalues not converged
     c_bands:  1 eigenvalues not converged
     c_bands:  1 eigenvalues not converged
     c_bands:  1 eigenvalues not converged
     c_bands:  1 eigenvalues not converged
     c_bands:  1 eigenvalues not converged
     c_bands:  2 eigenvalues not converged
     c_bands:  1 eigenvalues not converged
     c_bands:  1 eigenvalues not converged
     c_bands:  2 eigenvalues not converged
     c_bands:  1 eigenvalues not converged
     c_bands:  1 eigenvalues not converged
     c_bands:  1 eigenvalues not converged
     c_bands:  1 eigenvalues not converged
     c_bands:  1 eigenvalues not converged
     c_bands:  1 eigenvalues not converged
     c_bands:  1 eigenvalues not converged
     c_bands:  2 eigenvalues not converged
     c_bands:  2 eigenvalues not converged
     c_bands:  2 eigenvalues not converged
     c_bands:  1 eigenvalues not converged
     c_bands:  1 eigenvalues not converged
     c_bands:  2 eigenvalues not converged
     c_bands:  2 eigenvalues not converged
     c_bands:  1 eigenvalues not converged
     c_bands:  2 eigenvalues not converged
     c_bands:  1 eigenvalues not converged
     c_bands:  1 eigenvalues not converged
     ethr =  1.95E-07,  avg # of iterations = 12.0

     total cpu time spent up to now is     2613.0 secs

     total energy              =   -1420.80359694 Ry
     estimated scf accuracy    <       0.00000030 Ry

     total magnetization       =   -20.15 Bohr mag/cell
     absolute magnetization    =    33.79 Bohr mag/cell

     iteration # 20     ecut=    90.00 Ry     beta= 0.70
     Davidson diagonalization with overlap

---- Real-time Memory Report at c_bands before calling an iterative solver
           585 MiB given to the printing process from OS
             0 MiB allocation reported by mallinfo(arena+hblkhd)
        109424 MiB available memory on the node where the printing process lives
------------------
     c_bands:  3 eigenvalues not converged
     c_bands:  4 eigenvalues not converged
     c_bands:  5 eigenvalues not converged
     c_bands:  3 eigenvalues not converged
     c_bands:  2 eigenvalues not converged
     c_bands:  5 eigenvalues not converged
     c_bands:  4 eigenvalues not converged
     c_bands:  5 eigenvalues not converged
     c_bands:  3 eigenvalues not converged
     c_bands:  4 eigenvalues not converged
     c_bands:  3 eigenvalues not converged
     c_bands:  5 eigenvalues not converged
     c_bands:  2 eigenvalues not converged
     c_bands:  4 eigenvalues not converged
     c_bands:  4 eigenvalues not converged
     c_bands:  4 eigenvalues not converged
     c_bands:  5 eigenvalues not converged
     c_bands:  4 eigenvalues not converged
     c_bands:  3 eigenvalues not converged
     c_bands:  3 eigenvalues not converged
     c_bands:  5 eigenvalues not converged
     c_bands:  3 eigenvalues not converged
     c_bands:  3 eigenvalues not converged
     c_bands:  4 eigenvalues not converged
     c_bands:  4 eigenvalues not converged
     c_bands:  2 eigenvalues not converged
     c_bands:  2 eigenvalues not converged
     c_bands:  4 eigenvalues not converged
     c_bands:  4 eigenvalues not converged
     c_bands:  4 eigenvalues not converged
     c_bands:  2 eigenvalues not converged
     c_bands:  3 eigenvalues not converged
     c_bands:  3 eigenvalues not converged
     c_bands:  5 eigenvalues not converged
     c_bands:  4 eigenvalues not converged
     c_bands:  4 eigenvalues not converged
     c_bands:  4 eigenvalues not converged
     c_bands:  1 eigenvalues not converged
     c_bands:  1 eigenvalues not converged
     c_bands:  1 eigenvalues not converged
     c_bands:  1 eigenvalues not converged
     c_bands:  1 eigenvalues not converged
     c_bands:  1 eigenvalues not converged
     c_bands:  1 eigenvalues not converged
     c_bands:  1 eigenvalues not converged
     c_bands:  1 eigenvalues not converged
     c_bands:  1 eigenvalues not converged
     c_bands:  1 eigenvalues not converged
     c_bands:  3 eigenvalues not converged
     c_bands:  1 eigenvalues not converged
     ethr =  2.64E-10,  avg # of iterations = 28.0

     total cpu time spent up to now is     2871.1 secs

     total energy              =   -1420.80360357 Ry
     estimated scf accuracy    <       0.00000718 Ry

     total magnetization       =   -20.15 Bohr mag/cell
     absolute magnetization    =    33.79 Bohr mag/cell

     iteration # 21     ecut=    90.00 Ry     beta= 0.70
     Davidson diagonalization with overlap

---- Real-time Memory Report at c_bands before calling an iterative solver
           586 MiB given to the printing process from OS
             0 MiB allocation reported by mallinfo(arena+hblkhd)
        109410 MiB available memory on the node where the printing process lives
------------------
     c_bands:  1 eigenvalues not converged
     c_bands:  3 eigenvalues not converged
     c_bands:  1 eigenvalues not converged
     c_bands:  2 eigenvalues not converged
     c_bands:  2 eigenvalues not converged
     c_bands:  4 eigenvalues not converged
     c_bands:  3 eigenvalues not converged
     c_bands:  3 eigenvalues not converged
     c_bands:  2 eigenvalues not converged
     c_bands:  2 eigenvalues not converged
     c_bands:  1 eigenvalues not converged
     c_bands:  2 eigenvalues not converged
     c_bands:  1 eigenvalues not converged
     c_bands:  2 eigenvalues not converged
     c_bands:  3 eigenvalues not converged
     c_bands:  3 eigenvalues not converged
     c_bands:  4 eigenvalues not converged
     c_bands:  2 eigenvalues not converged
     c_bands:  2 eigenvalues not converged
     c_bands:  2 eigenvalues not converged
     c_bands:  3 eigenvalues not converged
     c_bands:  2 eigenvalues not converged
     c_bands:  2 eigenvalues not converged
     c_bands:  2 eigenvalues not converged
     c_bands:  4 eigenvalues not converged
     c_bands:  2 eigenvalues not converged
     c_bands:  2 eigenvalues not converged
     c_bands:  2 eigenvalues not converged
     c_bands:  3 eigenvalues not converged
     c_bands:  2 eigenvalues not converged
     c_bands:  2 eigenvalues not converged
     c_bands:  2 eigenvalues not converged
     c_bands:  2 eigenvalues not converged
     c_bands:  4 eigenvalues not converged
     c_bands:  4 eigenvalues not converged
     c_bands:  4 eigenvalues not converged
     c_bands:  2 eigenvalues not converged
     c_bands:  1 eigenvalues not converged
     ethr =  2.64E-10,  avg # of iterations = 13.4

     total cpu time spent up to now is     2969.1 secs

     total energy              =   -1420.80360370 Ry
     estimated scf accuracy    <       0.00000116 Ry

     total magnetization       =   -20.15 Bohr mag/cell
     absolute magnetization    =    33.80 Bohr mag/cell

     iteration # 22     ecut=    90.00 Ry     beta= 0.70
     Davidson diagonalization with overlap

---- Real-time Memory Report at c_bands before calling an iterative solver
           586 MiB given to the printing process from OS
             0 MiB allocation reported by mallinfo(arena+hblkhd)
        109416 MiB available memory on the node where the printing process lives
------------------
     c_bands:  1 eigenvalues not converged
     c_bands:  1 eigenvalues not converged
     c_bands:  1 eigenvalues not converged
     c_bands:  1 eigenvalues not converged
     c_bands:  1 eigenvalues not converged
     c_bands:  4 eigenvalues not converged
     c_bands:  3 eigenvalues not converged
     c_bands:  3 eigenvalues not converged
     c_bands:  1 eigenvalues not converged
     c_bands:  2 eigenvalues not converged
     c_bands:  1 eigenvalues not converged
     c_bands:  1 eigenvalues not converged
     c_bands:  2 eigenvalues not converged
     c_bands:  2 eigenvalues not converged
     c_bands:  3 eigenvalues not converged
     c_bands:  3 eigenvalues not converged
     c_bands:  2 eigenvalues not converged
     c_bands:  1 eigenvalues not converged
     c_bands:  1 eigenvalues not converged
     c_bands:  2 eigenvalues not converged
     c_bands:  2 eigenvalues not converged
     c_bands:  1 eigenvalues not converged
     c_bands:  1 eigenvalues not converged
     c_bands:  4 eigenvalues not converged
     c_bands:  2 eigenvalues not converged
     c_bands:  2 eigenvalues not converged
     c_bands:  2 eigenvalues not converged
     c_bands:  2 eigenvalues not converged
     c_bands:  1 eigenvalues not converged
     c_bands:  2 eigenvalues not converged
     c_bands:  2 eigenvalues not converged
     c_bands:  2 eigenvalues not converged
     c_bands:  4 eigenvalues not converged
     c_bands:  4 eigenvalues not converged
     c_bands:  4 eigenvalues not converged
     c_bands:  1 eigenvalues not converged
     c_bands:  1 eigenvalues not converged
     ethr =  2.64E-10,  avg # of iterations = 12.7

     total cpu time spent up to now is     3052.5 secs

     total energy              =   -1420.80360376 Ry
     estimated scf accuracy    <       0.00000010 Ry

     total magnetization       =   -20.15 Bohr mag/cell
     absolute magnetization    =    33.80 Bohr mag/cell

     iteration # 23     ecut=    90.00 Ry     beta= 0.70
     Davidson diagonalization with overlap

---- Real-time Memory Report at c_bands before calling an iterative solver
           586 MiB given to the printing process from OS
             0 MiB allocation reported by mallinfo(arena+hblkhd)
        109401 MiB available memory on the node where the printing process lives
------------------
     c_bands:  1 eigenvalues not converged
     c_bands:  1 eigenvalues not converged
     c_bands:  1 eigenvalues not converged
     c_bands:  1 eigenvalues not converged
     c_bands:  3 eigenvalues not converged
     c_bands:  3 eigenvalues not converged
     c_bands:  3 eigenvalues not converged
     c_bands:  1 eigenvalues not converged
     c_bands:  2 eigenvalues not converged
     c_bands:  1 eigenvalues not converged
     c_bands:  1 eigenvalues not converged
     c_bands:  2 eigenvalues not converged
     c_bands:  3 eigenvalues not converged
     c_bands:  3 eigenvalues not converged
     c_bands:  3 eigenvalues not converged
     c_bands:  2 eigenvalues not converged
     c_bands:  1 eigenvalues not converged
     c_bands:  1 eigenvalues not converged
     c_bands:  1 eigenvalues not converged
     c_bands:  2 eigenvalues not converged
     c_bands:  1 eigenvalues not converged
     c_bands:  2 eigenvalues not converged
     c_bands:  4 eigenvalues not converged
     c_bands:  2 eigenvalues not converged
     c_bands:  2 eigenvalues not converged
     c_bands:  2 eigenvalues not converged
     c_bands:  2 eigenvalues not converged
     c_bands:  1 eigenvalues not converged
     c_bands:  2 eigenvalues not converged
     c_bands:  3 eigenvalues not converged
     c_bands:  3 eigenvalues not converged
     c_bands:  3 eigenvalues not converged
     c_bands:  3 eigenvalues not converged
     c_bands:  4 eigenvalues not converged
     c_bands:  2 eigenvalues not converged
     c_bands:  1 eigenvalues not converged
     ethr =  8.88E-11,  avg # of iterations = 12.9

     total cpu time spent up to now is     3136.7 secs

     total energy              =   -1420.80360378 Ry
     estimated scf accuracy    <          8.4E-10 Ry

     total magnetization       =   -20.15 Bohr mag/cell
     absolute magnetization    =    33.80 Bohr mag/cell

     iteration # 24     ecut=    90.00 Ry     beta= 0.70
     Davidson diagonalization with overlap

---- Real-time Memory Report at c_bands before calling an iterative solver
           586 MiB given to the printing process from OS
             0 MiB allocation reported by mallinfo(arena+hblkhd)
        109392 MiB available memory on the node where the printing process lives
------------------
     c_bands:  2 eigenvalues not converged
     c_bands:  3 eigenvalues not converged
     c_bands:  4 eigenvalues not converged
     c_bands:  2 eigenvalues not converged
     c_bands:  4 eigenvalues not converged
     c_bands:  2 eigenvalues not converged
     c_bands:  5 eigenvalues not converged
     c_bands:  3 eigenvalues not converged
     c_bands:  4 eigenvalues not converged
     c_bands:  5 eigenvalues not converged
     c_bands:  3 eigenvalues not converged
     c_bands:  3 eigenvalues not converged
     c_bands:  5 eigenvalues not converged
     c_bands:  4 eigenvalues not converged
     c_bands:  3 eigenvalues not converged
     c_bands:  3 eigenvalues not converged
     c_bands:  3 eigenvalues not converged
     c_bands:  4 eigenvalues not converged
     c_bands:  1 eigenvalues not converged
     c_bands:  2 eigenvalues not converged
     c_bands:  5 eigenvalues not converged
     c_bands:  3 eigenvalues not converged
     c_bands:  3 eigenvalues not converged
     c_bands:  4 eigenvalues not converged
     c_bands:  3 eigenvalues not converged
     c_bands:  4 eigenvalues not converged
     c_bands:  4 eigenvalues not converged
     c_bands:  3 eigenvalues not converged
     c_bands:  3 eigenvalues not converged
     c_bands:  3 eigenvalues not converged
     c_bands:  2 eigenvalues not converged
     c_bands:  4 eigenvalues not converged
     c_bands:  3 eigenvalues not converged
     c_bands:  3 eigenvalues not converged
     c_bands:  4 eigenvalues not converged
     c_bands:  4 eigenvalues not converged
     c_bands:  3 eigenvalues not converged
     c_bands:  1 eigenvalues not converged
     c_bands:  1 eigenvalues not converged
     c_bands:  1 eigenvalues not converged
     ethr =  7.49E-13,  avg # of iterations = 21.7

     total cpu time spent up to now is     3273.6 secs

     total energy              =   -1420.80360378 Ry
     estimated scf accuracy    <          6.5E-10 Ry

     total magnetization       =   -20.15 Bohr mag/cell
     absolute magnetization    =    33.80 Bohr mag/cell

     iteration # 25     ecut=    90.00 Ry     beta= 0.70
     Davidson diagonalization with overlap

---- Real-time Memory Report at c_bands before calling an iterative solver
           586 MiB given to the printing process from OS
             0 MiB allocation reported by mallinfo(arena+hblkhd)
        111333 MiB available memory on the node where the printing process lives
------------------
     c_bands:  1 eigenvalues not converged
     c_bands:  2 eigenvalues not converged
     c_bands:  1 eigenvalues not converged
     c_bands:  2 eigenvalues not converged
     c_bands:  2 eigenvalues not converged
     c_bands:  2 eigenvalues not converged
     c_bands:  3 eigenvalues not converged
     c_bands:  3 eigenvalues not converged
     c_bands:  1 eigenvalues not converged
     c_bands:  2 eigenvalues not converged
     c_bands:  1 eigenvalues not converged
     c_bands:  2 eigenvalues not converged
     c_bands:  1 eigenvalues not converged
     c_bands:  2 eigenvalues not converged
     c_bands:  3 eigenvalues not converged
     c_bands:  3 eigenvalues not converged
     c_bands:  3 eigenvalues not converged
     c_bands:  3 eigenvalues not converged
     c_bands:  1 eigenvalues not converged
     c_bands:  2 eigenvalues not converged
     c_bands:  2 eigenvalues not converged
     c_bands:  2 eigenvalues not converged
     c_bands:  2 eigenvalues not converged
     c_bands:  2 eigenvalues not converged
     c_bands:  3 eigenvalues not converged
     c_bands:  2 eigenvalues not converged
     c_bands:  2 eigenvalues not converged
     c_bands:  2 eigenvalues not converged
     c_bands:  2 eigenvalues not converged
     c_bands:  2 eigenvalues not converged
     c_bands:  2 eigenvalues not converged
     c_bands:  3 eigenvalues not converged
     c_bands:  2 eigenvalues not converged
     c_bands:  3 eigenvalues not converged
     c_bands:  3 eigenvalues not converged
     c_bands:  4 eigenvalues not converged
     c_bands:  2 eigenvalues not converged
     c_bands:  1 eigenvalues not converged
     ethr =  5.81E-13,  avg # of iterations = 11.2

     total cpu time spent up to now is     3330.0 secs

     total energy              =   -1420.80360378 Ry
     estimated scf accuracy    <          2.9E-11 Ry

     total magnetization       =   -20.15 Bohr mag/cell
     absolute magnetization    =    33.80 Bohr mag/cell

     iteration # 26     ecut=    90.00 Ry     beta= 0.70
     Davidson diagonalization with overlap

---- Real-time Memory Report at c_bands before calling an iterative solver
           586 MiB given to the printing process from OS
             0 MiB allocation reported by mallinfo(arena+hblkhd)
        111338 MiB available memory on the node where the printing process lives
------------------
     c_bands:  2 eigenvalues not converged
     c_bands:  1 eigenvalues not converged
     c_bands:  1 eigenvalues not converged
     c_bands:  2 eigenvalues not converged
     c_bands:  2 eigenvalues not converged
     c_bands:  2 eigenvalues not converged
     c_bands:  3 eigenvalues not converged
     c_bands:  3 eigenvalues not converged
     c_bands:  1 eigenvalues not converged
     c_bands:  2 eigenvalues not converged
     c_bands:  2 eigenvalues not converged
     c_bands:  1 eigenvalues not converged
     c_bands:  1 eigenvalues not converged
     c_bands:  2 eigenvalues not converged
     c_bands:  2 eigenvalues not converged
     c_bands:  3 eigenvalues not converged
     c_bands:  3 eigenvalues not converged
     c_bands:  2 eigenvalues not converged
     c_bands:  1 eigenvalues not converged
     c_bands:  1 eigenvalues not converged
     c_bands:  3 eigenvalues not converged
     c_bands:  3 eigenvalues not converged
     c_bands:  2 eigenvalues not converged
     c_bands:  3 eigenvalues not converged
     c_bands:  3 eigenvalues not converged
     c_bands:  2 eigenvalues not converged
     c_bands:  2 eigenvalues not converged
     c_bands:  2 eigenvalues not converged
     c_bands:  3 eigenvalues not converged
     c_bands:  3 eigenvalues not converged
     c_bands:  2 eigenvalues not converged
     c_bands:  2 eigenvalues not converged
     c_bands:  3 eigenvalues not converged
     c_bands:  3 eigenvalues not converged
     c_bands:  3 eigenvalues not converged
     c_bands:  4 eigenvalues not converged
     c_bands:  3 eigenvalues not converged
     c_bands:  1 eigenvalues not converged
     ethr =  1.00E-13,  avg # of iterations = 13.8

     total cpu time spent up to now is     3392.8 secs

     total energy              =   -1420.80360378 Ry
     estimated scf accuracy    <          1.8E-12 Ry

     total magnetization       =   -20.15 Bohr mag/cell
     absolute magnetization    =    33.80 Bohr mag/cell

     iteration # 27     ecut=    90.00 Ry     beta= 0.70
     Davidson diagonalization with overlap

---- Real-time Memory Report at c_bands before calling an iterative solver
           586 MiB given to the printing process from OS
             0 MiB allocation reported by mallinfo(arena+hblkhd)
        111332 MiB available memory on the node where the printing process lives
------------------
     c_bands:  1 eigenvalues not converged
     c_bands:  1 eigenvalues not converged
     c_bands:  1 eigenvalues not converged
     c_bands:  1 eigenvalues not converged
     c_bands:  2 eigenvalues not converged
     c_bands:  2 eigenvalues not converged
     c_bands:  3 eigenvalues not converged
     c_bands:  3 eigenvalues not converged
     c_bands:  1 eigenvalues not converged
     c_bands:  2 eigenvalues not converged
     c_bands:  1 eigenvalues not converged
     c_bands:  1 eigenvalues not converged
     c_bands:  1 eigenvalues not converged
     c_bands:  2 eigenvalues not converged
     c_bands:  2 eigenvalues not converged
     c_bands:  3 eigenvalues not converged
     c_bands:  3 eigenvalues not converged
     c_bands:  2 eigenvalues not converged
     c_bands:  1 eigenvalues not converged
     c_bands:  1 eigenvalues not converged
     c_bands:  2 eigenvalues not converged
     c_bands:  2 eigenvalues not converged
     c_bands:  1 eigenvalues not converged
     c_bands:  1 eigenvalues not converged
     c_bands:  2 eigenvalues not converged
     c_bands:  2 eigenvalues not converged
     c_bands:  2 eigenvalues not converged
     c_bands:  2 eigenvalues not converged
     c_bands:  2 eigenvalues not converged
     c_bands:  2 eigenvalues not converged
     c_bands:  2 eigenvalues not converged
     c_bands:  2 eigenvalues not converged
     c_bands:  2 eigenvalues not converged
     c_bands:  3 eigenvalues not converged
     c_bands:  3 eigenvalues not converged
     c_bands:  4 eigenvalues not converged
     c_bands:  2 eigenvalues not converged
     c_bands:  1 eigenvalues not converged
     ethr =  1.00E-13,  avg # of iterations = 10.8

     total cpu time spent up to now is     3444.1 secs

     total energy              =   -1420.80360378 Ry
     estimated scf accuracy    <          1.3E-13 Ry

     total magnetization       =   -20.15 Bohr mag/cell
     absolute magnetization    =    33.80 Bohr mag/cell

     iteration # 28     ecut=    90.00 Ry     beta= 0.70
     Davidson diagonalization with overlap

---- Real-time Memory Report at c_bands before calling an iterative solver
           586 MiB given to the printing process from OS
             0 MiB allocation reported by mallinfo(arena+hblkhd)
        111331 MiB available memory on the node where the printing process lives
------------------
     c_bands:  1 eigenvalues not converged
     c_bands:  1 eigenvalues not converged
     c_bands:  1 eigenvalues not converged
     c_bands:  1 eigenvalues not converged
     c_bands:  1 eigenvalues not converged
     c_bands:  2 eigenvalues not converged
     c_bands:  3 eigenvalues not converged
     c_bands:  3 eigenvalues not converged
     c_bands:  1 eigenvalues not converged
     c_bands:  2 eigenvalues not converged
     c_bands:  1 eigenvalues not converged
     c_bands:  1 eigenvalues not converged
     c_bands:  1 eigenvalues not converged
     c_bands:  2 eigenvalues not converged
     c_bands:  2 eigenvalues not converged
     c_bands:  3 eigenvalues not converged
     c_bands:  1 eigenvalues not converged
     c_bands:  2 eigenvalues not converged
     c_bands:  1 eigenvalues not converged
     c_bands:  1 eigenvalues not converged
     c_bands:  1 eigenvalues not converged
     c_bands:  2 eigenvalues not converged
     c_bands:  1 eigenvalues not converged
     c_bands:  1 eigenvalues not converged
     c_bands:  2 eigenvalues not converged
     c_bands:  1 eigenvalues not converged
     c_bands:  2 eigenvalues not converged
     c_bands:  2 eigenvalues not converged
     c_bands:  2 eigenvalues not converged
     c_bands:  1 eigenvalues not converged
     c_bands:  2 eigenvalues not converged
     c_bands:  2 eigenvalues not converged
     c_bands:  2 eigenvalues not converged
     c_bands:  3 eigenvalues not converged
     c_bands:  3 eigenvalues not converged
     c_bands:  4 eigenvalues not converged
     c_bands:  2 eigenvalues not converged
     c_bands:  1 eigenvalues not converged
     ethr =  1.00E-13,  avg # of iterations = 10.8

     total cpu time spent up to now is     3494.7 secs

     total energy              =   -1420.80360378 Ry
     estimated scf accuracy    <          2.0E-13 Ry

     total magnetization       =   -20.15 Bohr mag/cell
     absolute magnetization    =    33.80 Bohr mag/cell

     iteration # 29     ecut=    90.00 Ry     beta= 0.70
     Davidson diagonalization with overlap

---- Real-time Memory Report at c_bands before calling an iterative solver
           586 MiB given to the printing process from OS
             0 MiB allocation reported by mallinfo(arena+hblkhd)
        111332 MiB available memory on the node where the printing process lives
------------------
     c_bands:  1 eigenvalues not converged
     c_bands:  1 eigenvalues not converged
     c_bands:  1 eigenvalues not converged
     c_bands:  1 eigenvalues not converged
     c_bands:  2 eigenvalues not converged
     c_bands:  2 eigenvalues not converged
     c_bands:  3 eigenvalues not converged
     c_bands:  1 eigenvalues not converged
     c_bands:  2 eigenvalues not converged
     c_bands:  1 eigenvalues not converged
     c_bands:  1 eigenvalues not converged
     c_bands:  2 eigenvalues not converged
     c_bands:  2 eigenvalues not converged
     c_bands:  2 eigenvalues not converged
     c_bands:  1 eigenvalues not converged
     c_bands:  2 eigenvalues not converged
     c_bands:  1 eigenvalues not converged
     c_bands:  1 eigenvalues not converged
     c_bands:  1 eigenvalues not converged
     c_bands:  2 eigenvalues not converged
     c_bands:  1 eigenvalues not converged
     c_bands:  1 eigenvalues not converged
     c_bands:  2 eigenvalues not converged
     c_bands:  1 eigenvalues not converged
     c_bands:  2 eigenvalues not converged
     c_bands:  2 eigenvalues not converged
     c_bands:  1 eigenvalues not converged
     c_bands:  1 eigenvalues not converged
     c_bands:  2 eigenvalues not converged
     c_bands:  2 eigenvalues not converged
     c_bands:  2 eigenvalues not converged
     c_bands:  3 eigenvalues not converged
     c_bands:  3 eigenvalues not converged
     c_bands:  3 eigenvalues not converged
     c_bands:  2 eigenvalues not converged
     c_bands:  1 eigenvalues not converged
     ethr =  1.00E-13,  avg # of iterations = 10.3

     total cpu time spent up to now is     3544.5 secs

     total energy              =   -1420.80360378 Ry
     estimated scf accuracy    <          1.5E-13 Ry

     total magnetization       =   -20.15 Bohr mag/cell
     absolute magnetization    =    33.80 Bohr mag/cell

     iteration # 30     ecut=    90.00 Ry     beta= 0.70
     Davidson diagonalization with overlap

---- Real-time Memory Report at c_bands before calling an iterative solver
           586 MiB given to the printing process from OS
             0 MiB allocation reported by mallinfo(arena+hblkhd)
        111329 MiB available memory on the node where the printing process lives
------------------
     c_bands:  1 eigenvalues not converged
     c_bands:  1 eigenvalues not converged
     c_bands:  1 eigenvalues not converged
     c_bands:  2 eigenvalues not converged
     c_bands:  3 eigenvalues not converged
     c_bands:  1 eigenvalues not converged
     c_bands:  1 eigenvalues not converged
     c_bands:  1 eigenvalues not converged
     c_bands:  1 eigenvalues not converged
     c_bands:  2 eigenvalues not converged
     c_bands:  2 eigenvalues not converged
     c_bands:  2 eigenvalues not converged
     c_bands:  1 eigenvalues not converged
     c_bands:  1 eigenvalues not converged
     c_bands:  1 eigenvalues not converged
     c_bands:  1 eigenvalues not converged
     c_bands:  1 eigenvalues not converged
     c_bands:  2 eigenvalues not converged
     c_bands:  1 eigenvalues not converged
     c_bands:  1 eigenvalues not converged
     c_bands:  2 eigenvalues not converged
     c_bands:  1 eigenvalues not converged
     c_bands:  2 eigenvalues not converged
     c_bands:  2 eigenvalues not converged
     c_bands:  1 eigenvalues not converged
     c_bands:  1 eigenvalues not converged
     c_bands:  2 eigenvalues not converged
     c_bands:  2 eigenvalues not converged
     c_bands:  2 eigenvalues not converged
     c_bands:  3 eigenvalues not converged
     c_bands:  2 eigenvalues not converged
     c_bands:  3 eigenvalues not converged
     c_bands:  2 eigenvalues not converged
     c_bands:  1 eigenvalues not converged
     ethr =  1.00E-13,  avg # of iterations = 10.1

     total cpu time spent up to now is     3593.7 secs

     total energy              =   -1420.80360378 Ry
     estimated scf accuracy    <          3.1E-13 Ry

     total magnetization       =   -20.15 Bohr mag/cell
     absolute magnetization    =    33.80 Bohr mag/cell

     iteration # 31     ecut=    90.00 Ry     beta= 0.70
     Davidson diagonalization with overlap

---- Real-time Memory Report at c_bands before calling an iterative solver
           586 MiB given to the printing process from OS
             0 MiB allocation reported by mallinfo(arena+hblkhd)
        111329 MiB available memory on the node where the printing process lives
------------------
     c_bands:  1 eigenvalues not converged
     c_bands:  1 eigenvalues not converged
     c_bands:  1 eigenvalues not converged
     c_bands:  2 eigenvalues not converged
     c_bands:  3 eigenvalues not converged
     c_bands:  1 eigenvalues not converged
     c_bands:  1 eigenvalues not converged
     c_bands:  1 eigenvalues not converged
     c_bands:  1 eigenvalues not converged
     c_bands:  1 eigenvalues not converged
     c_bands:  2 eigenvalues not converged
     c_bands:  2 eigenvalues not converged
     c_bands:  1 eigenvalues not converged
     c_bands:  1 eigenvalues not converged
     c_bands:  1 eigenvalues not converged
     c_bands:  1 eigenvalues not converged
     c_bands:  1 eigenvalues not converged
     c_bands:  2 eigenvalues not converged
     c_bands:  1 eigenvalues not converged
     c_bands:  1 eigenvalues not converged
     c_bands:  2 eigenvalues not converged
     c_bands:  1 eigenvalues not converged
     c_bands:  2 eigenvalues not converged
     c_bands:  2 eigenvalues not converged
     c_bands:  1 eigenvalues not converged
     c_bands:  1 eigenvalues not converged
     c_bands:  2 eigenvalues not converged
     c_bands:  2 eigenvalues not converged
     c_bands:  2 eigenvalues not converged
     c_bands:  3 eigenvalues not converged
     c_bands:  2 eigenvalues not converged
     c_bands:  3 eigenvalues not converged
     c_bands:  2 eigenvalues not converged
     c_bands:  1 eigenvalues not converged
     ethr =  1.00E-13,  avg # of iterations =  9.7

     total cpu time spent up to now is     3642.1 secs

     total energy              =   -1420.80360378 Ry
     estimated scf accuracy    <          3.7E-13 Ry

     total magnetization       =   -20.15 Bohr mag/cell
     absolute magnetization    =    33.80 Bohr mag/cell

     iteration # 32     ecut=    90.00 Ry     beta= 0.70
     Davidson diagonalization with overlap

---- Real-time Memory Report at c_bands before calling an iterative solver
           586 MiB given to the printing process from OS
             0 MiB allocation reported by mallinfo(arena+hblkhd)
        111328 MiB available memory on the node where the printing process lives
------------------
     c_bands:  1 eigenvalues not converged
     c_bands:  1 eigenvalues not converged
     c_bands:  1 eigenvalues not converged
     c_bands:  2 eigenvalues not converged
     c_bands:  2 eigenvalues not converged
     c_bands:  1 eigenvalues not converged
     c_bands:  1 eigenvalues not converged
     c_bands:  1 eigenvalues not converged
     c_bands:  1 eigenvalues not converged
     c_bands:  1 eigenvalues not converged
     c_bands:  2 eigenvalues not converged
     c_bands:  2 eigenvalues not converged
     c_bands:  1 eigenvalues not converged
     c_bands:  1 eigenvalues not converged
     c_bands:  1 eigenvalues not converged
     c_bands:  1 eigenvalues not converged
     c_bands:  1 eigenvalues not converged
     c_bands:  2 eigenvalues not converged
     c_bands:  1 eigenvalues not converged
     c_bands:  1 eigenvalues not converged
     c_bands:  2 eigenvalues not converged
     c_bands:  1 eigenvalues not converged
     c_bands:  2 eigenvalues not converged
     c_bands:  2 eigenvalues not converged
     c_bands:  1 eigenvalues not converged
     c_bands:  1 eigenvalues not converged
     c_bands:  2 eigenvalues not converged
     c_bands:  2 eigenvalues not converged
     c_bands:  2 eigenvalues not converged
     c_bands:  3 eigenvalues not converged
     c_bands:  2 eigenvalues not converged
     c_bands:  3 eigenvalues not converged
     c_bands:  2 eigenvalues not converged
     c_bands:  1 eigenvalues not converged
     ethr =  1.00E-13,  avg # of iterations =  9.7

     total cpu time spent up to now is     3690.3 secs

     total energy              =   -1420.80360378 Ry
     estimated scf accuracy    <          3.7E-13 Ry

     total magnetization       =   -20.15 Bohr mag/cell
     absolute magnetization    =    33.80 Bohr mag/cell

     iteration # 33     ecut=    90.00 Ry     beta= 0.70
     Davidson diagonalization with overlap

---- Real-time Memory Report at c_bands before calling an iterative solver
           586 MiB given to the printing process from OS
             0 MiB allocation reported by mallinfo(arena+hblkhd)
        111327 MiB available memory on the node where the printing process lives
------------------
     c_bands:  1 eigenvalues not converged
     c_bands:  1 eigenvalues not converged
     c_bands:  1 eigenvalues not converged
     c_bands:  1 eigenvalues not converged
     c_bands:  2 eigenvalues not converged
     c_bands:  1 eigenvalues not converged
     c_bands:  1 eigenvalues not converged
     c_bands:  1 eigenvalues not converged
     c_bands:  1 eigenvalues not converged
     c_bands:  1 eigenvalues not converged
     c_bands:  2 eigenvalues not converged
     c_bands:  2 eigenvalues not converged
     c_bands:  1 eigenvalues not converged
     c_bands:  1 eigenvalues not converged
     c_bands:  1 eigenvalues not converged
     c_bands:  1 eigenvalues not converged
     c_bands:  1 eigenvalues not converged
     c_bands:  2 eigenvalues not converged
     c_bands:  1 eigenvalues not converged
     c_bands:  2 eigenvalues not converged
     c_bands:  1 eigenvalues not converged
     c_bands:  2 eigenvalues not converged
     c_bands:  2 eigenvalues not converged
     c_bands:  1 eigenvalues not converged
     c_bands:  1 eigenvalues not converged
     c_bands:  2 eigenvalues not converged
     c_bands:  2 eigenvalues not converged
     c_bands:  2 eigenvalues not converged
     c_bands:  3 eigenvalues not converged
     c_bands:  2 eigenvalues not converged
     c_bands:  3 eigenvalues not converged
     c_bands:  2 eigenvalues not converged
     ethr =  1.00E-13,  avg # of iterations =  9.4

     total cpu time spent up to now is     3737.9 secs

     total energy              =   -1420.80360378 Ry
     estimated scf accuracy    <          3.3E-13 Ry

     total magnetization       =   -20.15 Bohr mag/cell
     absolute magnetization    =    33.80 Bohr mag/cell

     iteration # 34     ecut=    90.00 Ry     beta= 0.70
     Davidson diagonalization with overlap

---- Real-time Memory Report at c_bands before calling an iterative solver
           586 MiB given to the printing process from OS
             0 MiB allocation reported by mallinfo(arena+hblkhd)
        111331 MiB available memory on the node where the printing process lives
------------------
     c_bands:  1 eigenvalues not converged
     c_bands:  1 eigenvalues not converged
     c_bands:  1 eigenvalues not converged
     c_bands:  1 eigenvalues not converged
     c_bands:  1 eigenvalues not converged
     c_bands:  1 eigenvalues not converged
     c_bands:  1 eigenvalues not converged
     c_bands:  1 eigenvalues not converged
     c_bands:  1 eigenvalues not converged
     c_bands:  1 eigenvalues not converged
     c_bands:  2 eigenvalues not converged
     c_bands:  1 eigenvalues not converged
     c_bands:  1 eigenvalues not converged
     c_bands:  1 eigenvalues not converged
     c_bands:  1 eigenvalues not converged
     c_bands:  1 eigenvalues not converged
     c_bands:  2 eigenvalues not converged
     c_bands:  1 eigenvalues not converged
     c_bands:  1 eigenvalues not converged
     c_bands:  1 eigenvalues not converged
     c_bands:  2 eigenvalues not converged
     c_bands:  2 eigenvalues not converged
     c_bands:  1 eigenvalues not converged
     c_bands:  1 eigenvalues not converged
     c_bands:  2 eigenvalues not converged
     c_bands:  2 eigenvalues not converged
     c_bands:  2 eigenvalues not converged
     c_bands:  1 eigenvalues not converged
     c_bands:  2 eigenvalues not converged
     c_bands:  2 eigenvalues not converged
     c_bands:  2 eigenvalues not converged
     ethr =  1.00E-13,  avg # of iterations =  9.0

     total cpu time spent up to now is     3785.0 secs

     total energy              =   -1420.80360378 Ry
     estimated scf accuracy    <          5.6E-13 Ry

     total magnetization       =   -20.15 Bohr mag/cell
     absolute magnetization    =    33.80 Bohr mag/cell

     iteration # 35     ecut=    90.00 Ry     beta= 0.70
     Davidson diagonalization with overlap

---- Real-time Memory Report at c_bands before calling an iterative solver
           586 MiB given to the printing process from OS
             0 MiB allocation reported by mallinfo(arena+hblkhd)
        111326 MiB available memory on the node where the printing process lives
------------------
     c_bands:  1 eigenvalues not converged
     c_bands:  1 eigenvalues not converged
     c_bands:  1 eigenvalues not converged
     c_bands:  1 eigenvalues not converged
     c_bands:  1 eigenvalues not converged
     c_bands:  1 eigenvalues not converged
     c_bands:  1 eigenvalues not converged
     c_bands:  1 eigenvalues not converged
     c_bands:  1 eigenvalues not converged
     c_bands:  2 eigenvalues not converged
     c_bands:  1 eigenvalues not converged
     c_bands:  1 eigenvalues not converged
     c_bands:  1 eigenvalues not converged
     c_bands:  1 eigenvalues not converged
     c_bands:  1 eigenvalues not converged
     c_bands:  2 eigenvalues not converged
     c_bands:  1 eigenvalues not converged
     c_bands:  1 eigenvalues not converged
     c_bands:  1 eigenvalues not converged
     c_bands:  2 eigenvalues not converged
     c_bands:  2 eigenvalues not converged
     c_bands:  1 eigenvalues not converged
     c_bands:  1 eigenvalues not converged
     c_bands:  2 eigenvalues not converged
     c_bands:  2 eigenvalues not converged
     c_bands:  2 eigenvalues not converged
     c_bands:  1 eigenvalues not converged
     c_bands:  2 eigenvalues not converged
     c_bands:  3 eigenvalues not converged
     c_bands:  2 eigenvalues not converged
     ethr =  1.00E-13,  avg # of iterations =  8.7

     total cpu time spent up to now is     3831.4 secs

     total energy              =   -1420.80360378 Ry
     estimated scf accuracy    <          2.1E-13 Ry

     total magnetization       =   -20.15 Bohr mag/cell
     absolute magnetization    =    33.80 Bohr mag/cell

     iteration # 36     ecut=    90.00 Ry     beta= 0.70
     Davidson diagonalization with overlap

---- Real-time Memory Report at c_bands before calling an iterative solver
           586 MiB given to the printing process from OS
             0 MiB allocation reported by mallinfo(arena+hblkhd)
        111327 MiB available memory on the node where the printing process lives
------------------
     c_bands:  1 eigenvalues not converged
     c_bands:  1 eigenvalues not converged
     c_bands:  1 eigenvalues not converged
     c_bands:  1 eigenvalues not converged
     c_bands:  1 eigenvalues not converged
     c_bands:  1 eigenvalues not converged
     c_bands:  1 eigenvalues not converged
     c_bands:  1 eigenvalues not converged
     c_bands:  1 eigenvalues not converged
     c_bands:  2 eigenvalues not converged
     c_bands:  1 eigenvalues not converged
     c_bands:  1 eigenvalues not converged
     c_bands:  1 eigenvalues not converged
     c_bands:  1 eigenvalues not converged
     c_bands:  1 eigenvalues not converged
     c_bands:  2 eigenvalues not converged
     c_bands:  1 eigenvalues not converged
     c_bands:  1 eigenvalues not converged
     c_bands:  1 eigenvalues not converged
     c_bands:  1 eigenvalues not converged
     c_bands:  2 eigenvalues not converged
     c_bands:  1 eigenvalues not converged
     c_bands:  1 eigenvalues not converged
     c_bands:  2 eigenvalues not converged
     c_bands:  2 eigenvalues not converged
     c_bands:  2 eigenvalues not converged
     c_bands:  1 eigenvalues not converged
     c_bands:  2 eigenvalues not converged
     c_bands:  2 eigenvalues not converged
     c_bands:  2 eigenvalues not converged
     ethr =  1.00E-13,  avg # of iterations =  8.7

     total cpu time spent up to now is     3877.6 secs

     total energy              =   -1420.80360378 Ry
     estimated scf accuracy    <          4.0E-13 Ry

     total magnetization       =   -20.15 Bohr mag/cell
     absolute magnetization    =    33.80 Bohr mag/cell

     iteration # 37     ecut=    90.00 Ry     beta= 0.70
     Davidson diagonalization with overlap

---- Real-time Memory Report at c_bands before calling an iterative solver
           586 MiB given to the printing process from OS
             0 MiB allocation reported by mallinfo(arena+hblkhd)
[...]
     1.0000   1.0000   1.0000

          k = 0.1667 0.2887 0.0000 ( 52609 PWs)   bands (ev):

   -74.9048 -74.9045 -74.9045 -74.9044 -74.9043 -74.9043 -71.7152 -71.7152
   -46.6990 -46.6983 -46.6977 -46.6968 -46.6962 -46.6961 -46.6825 -46.6812
   -46.6803 -46.6797 -46.6789 -46.6780 -46.6721 -46.6715 -46.6714 -46.6694
   -46.6694 -46.6691 -43.4596 -43.4584 -43.4566 -43.4561 -43.4548 -43.4543
    -7.4525  -5.8501  -5.7114  -5.3658  -5.0146  -4.9488  -4.9175  -4.8557
    -4.7209  -4.5979  -4.5653  -4.5572  -4.5172  -4.4869  -4.4865  -4.4106
    -4.4089  -4.3637  -4.3367  -4.3357  -4.2896  -4.2542  -4.2483  -4.2126
    -4.0965  -4.0427  -4.0289  -3.9898  -3.9794  -3.9530  -3.9098  -3.9051
    -3.6868  -3.5508  -3.2792

     occupation numbers 
     1.0000   1.0000   1.0000   1.0000   1.0000   1.0000   1.0000   1.0000
     1.0000   1.0000   1.0000   1.0000   1.0000   1.0000   1.0000   1.0000
     1.0000   1.0000   1.0000   1.0000   1.0000   1.0000   1.0000   1.0000
     1.0000   1.0000   1.0000   1.0000   1.0000   1.0000   1.0000   1.0000
     1.0000   1.0000   1.0000   1.0000   1.0000   1.0000   1.0000   1.0000
     1.0000   1.0000   1.0000   1.0000   1.0000   1.0000   1.0000   1.0000
     1.0000   1.0000   1.0000   1.0000   1.0000   1.0000   1.0000   1.0000
     1.0000   1.0000   1.0000   1.0000   1.0000   1.0000   1.0000   1.0000
     1.0000   0.9816   0.0002

          k = 0.1667 0.3528 0.0000 ( 52573 PWs)   bands (ev):

   -74.9048 -74.9045 -74.9044 -74.9044 -74.9043 -74.9043 -71.7152 -71.7152
   -46.6990 -46.6982 -46.6977 -46.6967 -46.6963 -46.6962 -46.6823 -46.6811
   -46.6805 -46.6797 -46.6790 -46.6778 -46.6721 -46.6715 -46.6715 -46.6694
   -46.6694 -46.6691 -43.4595 -43.4585 -43.4566 -43.4560 -43.4549 -43.4543
    -7.3319  -6.0078  -5.6066  -5.4626  -5.0389  -4.9682  -4.9235  -4.8709
    -4.7449  -4.5906  -4.5744  -4.5591  -4.5350  -4.4890  -4.4761  -4.4221
    -4.4054  -4.3688  -4.3230  -4.3079  -4.2862  -4.2410  -4.2170  -4.2059
    -4.1110  -4.0431  -4.0385  -3.9861  -3.9807  -3.9256  -3.9068  -3.8967
    -3.7880  -3.6533  -3.3715

     occupation numbers 
     1.0000   1.0000   1.0000   1.0000   1.0000   1.0000   1.0000   1.0000
     1.0000   1.0000   1.0000   1.0000   1.0000   1.0000   1.0000   1.0000
     1.0000   1.0000   1.0000   1.0000   1.0000   1.0000   1.0000   1.0000
     1.0000   1.0000   1.0000   1.0000   1.0000   1.0000   1.0000   1.0000
     1.0000   1.0000   1.0000   1.0000   1.0000   1.0000   1.0000   1.0000
     1.0000   1.0000   1.0000   1.0000   1.0000   1.0000   1.0000   1.0000
     1.0000   1.0000   1.0000   1.0000   1.0000   1.0000   1.0000   1.0000
     1.0000   1.0000   1.0000   1.0000   1.0000   1.0000   1.0000   1.0000
     1.0000   1.0000   0.0504

          k = 0.1667 0.4170 0.0000 ( 52563 PWs)   bands (ev):

   -74.9048 -74.9045 -74.9044 -74.9044 -74.9043 -74.9043 -71.7152 -71.7152
   -46.6991 -46.6982 -46.6976 -46.6967 -46.6963 -46.6962 -46.6820 -46.6810
   -46.6807 -46.6799 -46.6791 -46.6777 -46.6721 -46.6716 -46.6716 -46.6693
   -46.6693 -46.6691 -43.4594 -43.4586 -43.4567 -43.4559 -43.4549 -43.4542
    -7.1936  -6.1818  -5.5433  -5.4859  -5.0729  -4.9897  -4.9394  -4.8637
    -4.7738  -4.6168  -4.5852  -4.5520  -4.5422  -4.4844  -4.4699  -4.4343
    -4.4200  -4.3588  -4.3157  -4.2872  -4.2723  -4.2162  -4.1928  -4.1831
    -4.1180  -4.0522  -4.0451  -3.9807  -3.9760  -3.9199  -3.9075  -3.8727
    -3.8652  -3.7402  -3.4890

     occupation numbers 
     1.0000   1.0000   1.0000   1.0000   1.0000   1.0000   1.0000   1.0000
     1.0000   1.0000   1.0000   1.0000   1.0000   1.0000   1.0000   1.0000
     1.0000   1.0000   1.0000   1.0000   1.0000   1.0000   1.0000   1.0000
     1.0000   1.0000   1.0000   1.0000   1.0000   1.0000   1.0000   1.0000
     1.0000   1.0000   1.0000   1.0000   1.0000   1.0000   1.0000   1.0000
     1.0000   1.0000   1.0000   1.0000   1.0000   1.0000   1.0000   1.0000
     1.0000   1.0000   1.0000   1.0000   1.0000   1.0000   1.0000   1.0000
     1.0000   1.0000   1.0000   1.0000   1.0000   1.0000   1.0000   1.0000
     1.0000   1.0000   0.7889

          k = 0.1667 0.4811 0.0000 ( 52543 PWs)   bands (ev):

   -74.9047 -74.9046 -74.9044 -74.9044 -74.9044 -74.9043 -71.7152 -71.7152
   -46.6991 -46.6981 -46.6976 -46.6966 -46.6964 -46.6963 -46.6818 -46.6809
   -46.6808 -46.6801 -46.6791 -46.6777 -46.6721 -46.6717 -46.6716 -46.6693
   -46.6693 -46.6691 -43.4593 -43.4587 -43.4567 -43.4559 -43.4550 -43.4542
    -7.0468  -6.3579  -5.5952  -5.3638  -5.1068  -5.0141  -4.9643  -4.8494
    -4.8025  -4.6606  -4.5858  -4.5463  -4.5374  -4.4837  -4.4735  -4.4469
    -4.4257  -4.3460  -4.3171  -4.2867  -4.2349  -4.1969  -4.1685  -4.1558
    -4.1171  -4.0638  -4.0516  -3.9797  -3.9631  -3.9472  -3.9249  -3.8929
    -3.8229  -3.8143  -3.5976

     occupation numbers 
     1.0000   1.0000   1.0000   1.0000   1.0000   1.0000   1.0000   1.0000
     1.0000   1.0000   1.0000   1.0000   1.0000   1.0000   1.0000   1.0000
     1.0000   1.0000   1.0000   1.0000   1.0000   1.0000   1.0000   1.0000
     1.0000   1.0000   1.0000   1.0000   1.0000   1.0000   1.0000   1.0000
     1.0000   1.0000   1.0000   1.0000   1.0000   1.0000   1.0000   1.0000
     1.0000   1.0000   1.0000   1.0000   1.0000   1.0000   1.0000   1.0000
     1.0000   1.0000   1.0000   1.0000   1.0000   1.0000   1.0000   1.0000
     1.0000   1.0000   1.0000   1.0000   1.0000   1.0000   1.0000   1.0000
     1.0000   1.0000   0.9989

          k = 0.1667 0.5453 0.0000 ( 52537 PWs)   bands (ev):

   -74.9047 -74.9046 -74.9044 -74.9044 -74.9044 -74.9043 -71.7152 -71.7152
   -46.6991 -46.6981 -46.6975 -46.6966 -46.6964 -46.6963 -46.6817 -46.6810
   -46.6807 -46.6803 -46.6791 -46.6776 -46.6721 -46.6717 -46.6717 -46.6693
   -46.6693 -46.6691 -43.4592 -43.4588 -43.4567 -43.4558 -43.4550 -43.4542
    -6.9230  -6.4982  -5.6219  -5.2509  -5.1474  -5.0466  -4.9814  -4.8377
    -4.8211  -4.6879  -4.5850  -4.5499  -4.5205  -4.4960  -4.4757  -4.4534
    -4.4246  -4.3361  -4.3217  -4.2857  -4.2093  -4.1848  -4.1452  -4.1430
    -4.1151  -4.0688  -4.0596  -3.9960  -3.9695  -3.9446  -3.9252  -3.8886
    -3.8737  -3.7739  -3.6808

     occupation numbers 
     1.0000   1.0000   1.0000   1.0000   1.0000   1.0000   1.0000   1.0000
     1.0000   1.0000   1.0000   1.0000   1.0000   1.0000   1.0000   1.0000
     1.0000   1.0000   1.0000   1.0000   1.0000   1.0000   1.0000   1.0000
     1.0000   1.0000   1.0000   1.0000   1.0000   1.0000   1.0000   1.0000
     1.0000   1.0000   1.0000   1.0000   1.0000   1.0000   1.0000   1.0000
     1.0000   1.0000   1.0000   1.0000   1.0000   1.0000   1.0000   1.0000
     1.0000   1.0000   1.0000   1.0000   1.0000   1.0000   1.0000   1.0000
     1.0000   1.0000   1.0000   1.0000   1.0000   1.0000   1.0000   1.0000
     1.0000   1.0000   1.0000

          k = 0.2222 0.3849 0.0000 ( 52542 PWs)   bands (ev):

   -74.9048 -74.9045 -74.9044 -74.9044 -74.9043 -74.9043 -71.7152 -71.7152
   -46.6991 -46.6981 -46.6977 -46.6967 -46.6963 -46.6962 -46.6821 -46.6810
   -46.6807 -46.6798 -46.6792 -46.6777 -46.6721 -46.6716 -46.6716 -46.6693
   -46.6693 -46.6691 -43.4594 -43.4586 -43.4567 -43.4559 -43.4549 -43.4542
    -7.2038  -6.1469  -5.5764  -5.4974  -5.0605  -4.9841  -4.9232  -4.8866
    -4.7717  -4.5871  -4.5770  -4.5596  -4.5388  -4.4937  -4.4702  -4.4278
    -4.4066  -4.3595  -4.3128  -4.2795  -4.2759  -4.2360  -4.2101  -4.1944
    -4.1198  -4.0446  -4.0446  -3.9903  -3.9805  -3.9143  -3.9133  -3.8697
    -3.8582  -3.7613  -3.4426

     occupation numbers 
     1.0000   1.0000   1.0000   1.0000   1.0000   1.0000   1.0000   1.0000
     1.0000   1.0000   1.0000   1.0000   1.0000   1.0000   1.0000   1.0000
     1.0000   1.0000   1.0000   1.0000   1.0000   1.0000   1.0000   1.0000
     1.0000   1.0000   1.0000   1.0000   1.0000   1.0000   1.0000   1.0000
     1.0000   1.0000   1.0000   1.0000   1.0000   1.0000   1.0000   1.0000
     1.0000   1.0000   1.0000   1.0000   1.0000   1.0000   1.0000   1.0000
     1.0000   1.0000   1.0000   1.0000   1.0000   1.0000   1.0000   1.0000
     1.0000   1.0000   1.0000   1.0000   1.0000   1.0000   1.0000   1.0000
     1.0000   1.0000   0.4356

          k = 0.2222 0.4491 0.0000 ( 52530 PWs)   bands (ev):

   -74.9047 -74.9046 -74.9044 -74.9044 -74.9044 -74.9043 -71.7152 -71.7152
   -46.6991 -46.6980 -46.6976 -46.6966 -46.6964 -46.6963 -46.6819 -46.6809
   -46.6808 -46.6799 -46.6794 -46.6776 -46.6721 -46.6717 -46.6716 -46.6693
   -46.6693 -46.6691 -43.4593 -43.4587 -43.4567 -43.4558 -43.4550 -43.4542
    -7.0615  -6.2990  -5.6630  -5.3847  -5.0922  -5.0057  -4.9270  -4.8769
    -4.7996  -4.6170  -4.5730  -4.5547  -4.5444  -4.4898  -4.4765  -4.4302
    -4.4094  -4.3468  -4.3040  -4.2737  -4.2499  -4.2242  -4.2059  -4.1687
    -4.1227  -4.0546  -4.0495  -3.9872  -3.9791  -3.9358  -3.9138  -3.9028
    -3.8421  -3.8314  -3.5432

     occupation numbers 
     1.0000   1.0000   1.0000   1.0000   1.0000   1.0000   1.0000   1.0000
     1.0000   1.0000   1.0000   1.0000   1.0000   1.0000   1.0000   1.0000
     1.0000   1.0000   1.0000   1.0000   1.0000   1.0000   1.0000   1.0000
     1.0000   1.0000   1.0000   1.0000   1.0000   1.0000   1.0000   1.0000
     1.0000   1.0000   1.0000   1.0000   1.0000   1.0000   1.0000   1.0000
     1.0000   1.0000   1.0000   1.0000   1.0000   1.0000   1.0000   1.0000
     1.0000   1.0000   1.0000   1.0000   1.0000   1.0000   1.0000   1.0000
     1.0000   1.0000   1.0000   1.0000   1.0000   1.0000   1.0000   1.0000
     1.0000   1.0000   0.9732

          k = 0.2222 0.5132 0.0000 ( 52530 PWs)   bands (ev):

   -74.9047 -74.9046 -74.9044 -74.9044 -74.9044 -74.9043 -71.7152 -71.7152
   -46.6991 -46.6980 -46.6976 -46.6966 -46.6964 -46.6964 -46.6817 -46.6811
   -46.6806 -46.6801 -46.6794 -46.6775 -46.6721 -46.6717 -46.6717 -46.6693
   -46.6693 -46.6691 -43.4592 -43.4588 -43.4567 -43.4557 -43.4551 -43.4541
    -6.9186  -6.4500  -5.7169  -5.2774  -5.1269  -5.0282  -4.9351  -4.8570
    -4.8237  -4.6555  -4.5705  -4.5558  -4.5348  -4.4929  -4.4867  -4.4310
    -4.4078  -4.3366  -4.2980  -4.2781  -4.2329  -4.2047  -4.1893  -4.1508
    -4.1217  -4.0635  -4.0571  -3.9851  -3.9763  -3.9643  -3.9283  -3.9113
    -3.8919  -3.7870  -3.6385

     occupation numbers 
     1.0000   1.0000   1.0000   1.0000   1.0000   1.0000   1.0000   1.0000
     1.0000   1.0000   1.0000   1.0000   1.0000   1.0000   1.0000   1.0000
     1.0000   1.0000   1.0000   1.0000   1.0000   1.0000   1.0000   1.0000
     1.0000   1.0000   1.0000   1.0000   1.0000   1.0000   1.0000   1.0000
     1.0000   1.0000   1.0000   1.0000   1.0000   1.0000   1.0000   1.0000
     1.0000   1.0000   1.0000   1.0000   1.0000   1.0000   1.0000   1.0000
     1.0000   1.0000   1.0000   1.0000   1.0000   1.0000   1.0000   1.0000
     1.0000   1.0000   1.0000   1.0000   1.0000   1.0000   1.0000   1.0000
     1.0000   1.0000   1.0000

          k = 0.2222 0.5774 0.0000 ( 52506 PWs)   bands (ev):

   -74.9047 -74.9046 -74.9044 -74.9044 -74.9044 -74.9043 -71.7152 -71.7152
   -46.6992 -46.6979 -46.6976 -46.6966 -46.6964 -46.6964 -46.6816 -46.6812
   -46.6805 -46.6802 -46.6794 -46.6775 -46.6721 -46.6717 -46.6717 -46.6693
   -46.6693 -46.6691 -43.4591 -43.4588 -43.4568 -43.4557 -43.4552 -43.4541
    -6.8373  -6.5347  -5.7349  -5.2099  -5.1614  -5.0407  -4.9386  -4.8431
    -4.8377  -4.6736  -4.5677  -4.5596  -4.5244  -4.5038  -4.4870  -4.4312
    -4.4065  -4.3325  -4.2948  -4.2821  -4.2298  -4.1888  -4.1814  -4.1465
    -4.1207  -4.0641  -4.0638  -3.9965  -3.9657  -3.9650  -3.9379  -3.9319
    -3.8962  -3.7497  -3.6941

     occupation numbers 
     1.0000   1.0000   1.0000   1.0000   1.0000   1.0000   1.0000   1.0000
     1.0000   1.0000   1.0000   1.0000   1.0000   1.0000   1.0000   1.0000
     1.0000   1.0000   1.0000   1.0000   1.0000   1.0000   1.0000   1.0000
     1.0000   1.0000   1.0000   1.0000   1.0000   1.0000   1.0000   1.0000
     1.0000   1.0000   1.0000   1.0000   1.0000   1.0000   1.0000   1.0000
     1.0000   1.0000   1.0000   1.0000   1.0000   1.0000   1.0000   1.0000
     1.0000   1.0000   1.0000   1.0000   1.0000   1.0000   1.0000   1.0000
     1.0000   1.0000   1.0000   1.0000   1.0000   1.0000   1.0000   1.0000
     1.0000   1.0000   1.0000

          k = 0.2778 0.4811 0.0000 ( 52508 PWs)   bands (ev):

   -74.9047 -74.9046 -74.9044 -74.9044 -74.9044 -74.9043 -71.7152 -71.7152
   -46.6992 -46.6979 -46.6976 -46.6966 -46.6964 -46.6964 -46.6817 -46.6811
   -46.6806 -46.6799 -46.6796 -46.6775 -46.6721 -46.6717 -46.6717 -46.6693
   -46.6693 -46.6691 -43.4592 -43.4588 -43.4568 -43.4557 -43.4552 -43.4541
    -6.9191  -6.4255  -5.7557  -5.2871  -5.1206  -5.0218  -4.9072  -4.8764
    -4.8248  -4.6263  -4.5770  -4.5556  -4.5434  -4.4912  -4.4909  -4.4193
    -4.3982  -4.3374  -4.2932  -4.2657  -4.2440  -4.2300  -4.2021  -4.1531
    -4.1251  -4.0583  -4.0572  -3.9930  -3.9803  -3.9595  -3.9241  -3.9177
    -3.9018  -3.7923  -3.6041

     occupation numbers 
     1.0000   1.0000   1.0000   1.0000   1.0000   1.0000   1.0000   1.0000
     1.0000   1.0000   1.0000   1.0000   1.0000   1.0000   1.0000   1.0000
     1.0000   1.0000   1.0000   1.0000   1.0000   1.0000   1.0000   1.0000
     1.0000   1.0000   1.0000   1.0000   1.0000   1.0000   1.0000   1.0000
     1.0000   1.0000   1.0000   1.0000   1.0000   1.0000   1.0000   1.0000
     1.0000   1.0000   1.0000   1.0000   1.0000   1.0000   1.0000   1.0000
     1.0000   1.0000   1.0000   1.0000   1.0000   1.0000   1.0000   1.0000
     1.0000   1.0000   1.0000   1.0000   1.0000   1.0000   1.0000   1.0000
     1.0000   1.0000   0.9993

          k = 0.2778 0.5453 0.0000 ( 52522 PWs)   bands (ev):

   -74.9047 -74.9046 -74.9044 -74.9044 -74.9044 -74.9043 -71.7152 -71.7152
   -46.6992 -46.6978 -46.6976 -46.6966 -46.6964 -46.6964 -46.6815 -46.6812
   -46.6803 -46.6800 -46.6797 -46.6774 -46.6721 -46.6717 -46.6717 -46.6693
   -46.6693 -46.6691 -43.4591 -43.4589 -43.4568 -43.4556 -43.4553 -43.4541
    -6.7868  -6.5485  -5.8054  -5.2113  -5.1511  -5.0323  -4.9014  -4.8607
    -4.8438  -4.6432  -4.5853  -4.5533  -4.5356  -4.5051  -4.4916  -4.4097
    -4.3929  -4.3327  -4.2825  -4.2706  -4.2513  -4.2265  -4.1822  -4.1464
    -4.1278  -4.0636  -4.0615  -3.9929  -3.9890  -3.9630  -3.9555  -3.9267
    -3.9106  -3.7470  -3.6712

     occupation numbers 
     1.0000   1.0000   1.0000   1.0000   1.0000   1.0000   1.0000   1.0000
     1.0000   1.0000   1.0000   1.0000   1.0000   1.0000   1.0000   1.0000
     1.0000   1.0000   1.0000   1.0000   1.0000   1.0000   1.0000   1.0000
     1.0000   1.0000   1.0000   1.0000   1.0000   1.0000   1.0000   1.0000
     1.0000   1.0000   1.0000   1.0000   1.0000   1.0000   1.0000   1.0000
     1.0000   1.0000   1.0000   1.0000   1.0000   1.0000   1.0000   1.0000
     1.0000   1.0000   1.0000   1.0000   1.0000   1.0000   1.0000   1.0000
     1.0000   1.0000   1.0000   1.0000   1.0000   1.0000   1.0000   1.0000
     1.0000   1.0000   1.0000

          k = 0.3333 0.5774 0.0000 ( 52536 PWs)   bands (ev):

   -74.9046 -74.9046 -74.9044 -74.9044 -74.9044 -74.9043 -71.7152 -71.7152
   -46.6992 -46.6977 -46.6977 -46.6966 -46.6964 -46.6964 -46.6814 -46.6814
   -46.6800 -46.6800 -46.6800 -46.6774 -46.6722 -46.6717 -46.6717 -46.6693
   -46.6693 -46.6691 -43.4590 -43.4590 -43.4568 -43.4554 -43.4554 -43.4541
    -6.6607  -6.6607  -5.8382  -5.1737  -5.1737  -5.0325  -4.8756  -4.8756
    -4.8487  -4.6183  -4.6183  -4.5420  -4.5420  -4.5106  -4.4927  -4.3930
    -4.3930  -4.3323  -4.2727  -4.2682  -4.2682  -4.2338  -4.1749  -4.1389
    -4.1389  -4.0633  -4.0633  -3.9998  -3.9805  -3.9805  -3.9599  -3.9217
    -3.9217  -3.7047  -3.7047

     occupation numbers 
     1.0000   1.0000   1.0000   1.0000   1.0000   1.0000   1.0000   1.0000
     1.0000   1.0000   1.0000   1.0000   1.0000   1.0000   1.0000   1.0000
     1.0000   1.0000   1.0000   1.0000   1.0000   1.0000   1.0000   1.0000
     1.0000   1.0000   1.0000   1.0000   1.0000   1.0000   1.0000   1.0000
     1.0000   1.0000   1.0000   1.0000   1.0000   1.0000   1.0000   1.0000
     1.0000   1.0000   1.0000   1.0000   1.0000   1.0000   1.0000   1.0000
     1.0000   1.0000   1.0000   1.0000   1.0000   1.0000   1.0000   1.0000
     1.0000   1.0000   1.0000   1.0000   1.0000   1.0000   1.0000   1.0000
     1.0000   1.0000   1.0000

     the Fermi energy is    -3.4504 ev

!    total energy              =   -1420.80360378 Ry
     estimated scf accuracy    <          5.0E-15 Ry
     smearing contrib. (-TS)   =      -0.00070525 Ry
     internal energy E=F+TS    =   -1420.80289853 Ry

     The total energy is F=E-TS. E is the sum of the following terms:
     one-electron contribution =   -4423.89308403 Ry
     hartree contribution      =    2188.67621334 Ry
     xc contribution           =    -208.56974794 Ry
     ewald contribution        =    1022.98372011 Ry

     total magnetization       =   -20.15 Bohr mag/cell
     absolute magnetization    =    33.80 Bohr mag/cell

     convergence has been achieved in  39 iterations

     Writing all to output data dir ./cri3_90Ry_k18x18x1.save/
 
     init_run     :     18.56s CPU     19.57s WALL (       1 calls)
     electrons    :   3915.28s CPU   3996.42s WALL (       1 calls)

     Called by init_run:
     wfcinit      :     17.76s CPU     18.69s WALL (       1 calls)
     wfcinit:atom :      0.26s CPU      0.49s WALL (      74 calls)
     wfcinit:wfcr :     16.15s CPU     16.61s WALL (      74 calls)
     potinit      :      0.18s CPU      0.19s WALL (       1 calls)
     hinit0       :      0.41s CPU      0.48s WALL (       1 calls)

     Called by electrons:
     c_bands      :   3496.01s CPU   3569.87s WALL (      39 calls)
     sum_band     :    415.61s CPU    422.73s WALL (      39 calls)
     v_of_rho     :      0.96s CPU      0.96s WALL (      40 calls)
     v_h          :      0.23s CPU      0.23s WALL (      40 calls)
     v_xc         :      0.73s CPU      0.74s WALL (      40 calls)
     mix_rho      :      2.43s CPU      2.48s WALL (      39 calls)

     Called by c_bands:
     init_us_2    :     33.59s CPU     33.87s WALL (    5846 calls)
     init_us_2:cp :     33.55s CPU     33.85s WALL (    5846 calls)
     cegterg      :   3278.45s CPU   3351.15s WALL (    2955 calls)

     Called by sum_band:
     sum_band:wei :      0.24s CPU      0.24s WALL (      39 calls)
     sum_band:loo :    414.42s CPU    421.50s WALL (      39 calls)
     sum_band:buf :      8.98s CPU      9.10s WALL (    2886 calls)
     sum_band:ini :     16.51s CPU     16.62s WALL (    2886 calls)

     Called by *egterg:
     cdiaghg      :    127.11s CPU    144.78s WALL (   30188 calls)
     cegterg:over :    226.68s CPU    228.71s WALL (   27242 calls)
     cegterg:upda :    264.01s CPU    267.12s WALL (   27242 calls)
     cegterg:last :    282.06s CPU    283.96s WALL (    7425 calls)
     cdiaghg:chol :      8.62s CPU      8.83s WALL (   30188 calls)
     cdiaghg:inve :      6.36s CPU      6.61s WALL (   30188 calls)
     cdiaghg:para :     10.96s CPU     11.39s WALL (   60376 calls)
     h_psi        :   2307.92s CPU   2355.20s WALL (   30271 calls)
     g_psi        :     12.21s CPU     12.34s WALL (   27242 calls)

     Called by h_psi:
     h_psi:calbec :    158.96s CPU    160.53s WALL (   30271 calls)
     vloc_psi     :   1952.67s CPU   1996.53s WALL (   30271 calls)
     add_vuspsi   :    171.49s CPU    172.46s WALL (   30271 calls)

     General routines
     calbec       :    158.82s CPU    160.45s WALL (   30271 calls)
     fft          :      0.61s CPU      0.68s WALL (     198 calls)
     ffts         :      0.22s CPU      0.22s WALL (      78 calls)
     fftw         :   1770.85s CPU   1810.07s WALL ( 1373014 calls)
 
     Parallel routines
 
     PWSCF        :      1h 5m CPU      1h 7m WALL

 
   This run was terminated on:  11:26:43  16Jan2024            

=------------------------------------------------------------------------------=
   JOB DONE.
=------------------------------------------------------------------------------=
