
     Program PWSCF v.7.0 starts on 19Jan2024 at 10: 9:29 

     This program is part of the open-source Quantum ESPRESSO suite
     for quantum simulation of materials; please cite
         "P. Giannozzi et al., J. Phys.:Condens. Matter 21 395502 (2009);
         "P. Giannozzi et al., J. Phys.:Condens. Matter 29 465901 (2017);
         "P. Giannozzi et al., J. Chem. Phys. 152 154105 (2020);
          URL http://www.quantum-espresso.org", 
     in publications or presentations arising from this work. More details at
     http://www.quantum-espresso.org/quote

     Parallel version (MPI), running on    12 processors

     MPI processes distributed on     1 nodes
     R & G space division:  proc/nbgrp/npool/nimage =      12
     176738 MiB available memory on the printing compute node when the environment starts
 
     Reading input from cri3-exp-nosoc_90Ry_k18x18x1.scf.in

     Current dimensions of program PWSCF are:
     Max number of different atomic species (ntypx) = 10
     Max number of k-points (npk) =  40000
     Max angular momentum in pseudopotentials (lmaxx) =  4

     Subspace diagonalization in iterative solution of the eigenvalue problem:
     one sub-group per band group will be used
     scalapack distributed-memory algorithm (size of sub-group:  3*  3 procs)

 
     Parallelization info
     --------------------
     sticks:   dense  smooth     PW     G-vecs:    dense   smooth      PW
     Min         348     348     93                35048    35048    4841
     Max         349     349     94                35057    35057    4846
     Sum        4177    4177   1123               420595   420595   58117
 
     Using Slab Decomposition
 


     bravais-lattice index     =            4
     lattice parameter (alat)  =      12.9767  a.u.
     unit-cell volume          =    3645.8815 (a.u.)^3
     number of atoms/cell      =            8
     number of atomic types    =            2
     number of electrons       =        70.00
     number of Kohn-Sham states=           42
     kinetic-energy cutoff     =      90.0000  Ry
     charge density cutoff     =     360.0000  Ry
     scf convergence threshold =      1.0E-13
     mixing beta               =       0.7000
     number of iterations used =            8  plain     mixing
     Exchange-correlation= PZ
                           (   1   1   0   0   0   0   0)

     celldm(1)=  12.976749  celldm(2)=   0.000000  celldm(3)=   1.926523
     celldm(4)=   0.000000  celldm(5)=   0.000000  celldm(6)=   0.000000

     crystal axes: (cart. coord. in units of alat)
               a(1) = (   1.000000   0.000000   0.000000 )  
               a(2) = (  -0.500000   0.866025   0.000000 )  
               a(3) = (   0.000000   0.000000   1.926523 )  

     reciprocal axes: (cart. coord. in units 2 pi/alat)
               b(1) = (  1.000000  0.577350  0.000000 )  
               b(2) = (  0.000000  1.154701  0.000000 )  
               b(3) = (  0.000000  0.000000  0.519070 )  


     PseudoPot. # 1 for Cr read from file:
     ./Cr_Alejandro.upf
     MD5 check sum: 19f8874af457815d5c8e16c7b8c57f71
     Pseudo is Norm-conserving + core correction, Zval = 14.0
     Generated using ONCVPSP code by D. R. Hamann
     Using radial grid of 1600 points,  6 beta functions with: 
                l(1) =   0
                l(2) =   0
                l(3) =   1
                l(4) =   1
                l(5) =   2
                l(6) =   2

     PseudoPot. # 2 for I  read from file:
     ./I_Alejandro.upf
     MD5 check sum: d0d4d45a39a9ecd37d4d9deb6bd296a3
     Pseudo is Norm-conserving + core correction, Zval =  7.0
     Generated using ONCVPSP code by D. R. Hamann
     Using radial grid of 1196 points,  6 beta functions with: 
                l(1) =   0
                l(2) =   0
                l(3) =   1
                l(4) =   1
                l(5) =   2
                l(6) =   2

     atomic species   valence    mass     pseudopotential
        Cr            14.00    51.99000     Cr( 1.00)
        I              7.00   126.90000     I ( 1.00)

     Starting magnetic structure 
     atomic species   magnetization
        Cr           1.000
        I            0.000

     12 Sym. Ops., with inversion, found


                                    s                        frac. trans.

      isym =  1     identity                                     

 cryst.   s( 1) = (     1          0          0      )
                  (     0          1          0      )
                  (     0          0          1      )

 cart.    s( 1) = (  1.0000000  0.0000000  0.0000000 )
                  (  0.0000000  1.0000000  0.0000000 )
                  (  0.0000000  0.0000000  1.0000000 )


      isym =  2     180 deg rotation - cart. axis [0,1,0]        

 cryst.   s( 2) = (    -1          0          0      )
                  (     1          1          0      )
                  (     0          0         -1      )

 cart.    s( 2) = ( -1.0000000  0.0000000  0.0000000 )
                  (  0.0000000  1.0000000  0.0000000 )
                  (  0.0000000  0.0000000 -1.0000000 )


      isym =  3     120 deg rotation - cryst. axis [0,0,1]       

 cryst.   s( 3) = (     0          1          0      )
                  (    -1         -1          0      )
                  (     0          0          1      )

 cart.    s( 3) = ( -0.5000000 -0.8660254  0.0000000 )
                  (  0.8660254 -0.5000000  0.0000000 )
                  (  0.0000000  0.0000000  1.0000000 )


      isym =  4     120 deg rotation - cryst. axis [0,0,-1]      

 cryst.   s( 4) = (    -1         -1          0      )
                  (     1          0          0      )
                  (     0          0          1      )

 cart.    s( 4) = ( -0.5000000  0.8660254  0.0000000 )
                  ( -0.8660254 -0.5000000  0.0000000 )
                  (  0.0000000  0.0000000  1.0000000 )


      isym =  5     180 deg rotation - cryst. axis [1,-1,0]      

 cryst.   s( 5) = (     0         -1          0      )
                  (    -1          0          0      )
                  (     0          0         -1      )

 cart.    s( 5) = (  0.5000000 -0.8660254  0.0000000 )
                  ( -0.8660254 -0.5000000  0.0000000 )
                  (  0.0000000  0.0000000 -1.0000000 )


      isym =  6     180 deg rotation - cryst. axis [2,1,0]       

 cryst.   s( 6) = (     1          1          0      )
                  (     0         -1          0      )
                  (     0          0         -1      )

 cart.    s( 6) = (  0.5000000  0.8660254  0.0000000 )
                  (  0.8660254 -0.5000000  0.0000000 )
                  (  0.0000000  0.0000000 -1.0000000 )


      isym =  7     inversion                                    

 cryst.   s( 7) = (    -1          0          0      )
                  (     0         -1          0      )
                  (     0          0         -1      )

 cart.    s( 7) = ( -1.0000000  0.0000000  0.0000000 )
                  (  0.0000000 -1.0000000  0.0000000 )
                  (  0.0000000  0.0000000 -1.0000000 )


      isym =  8     inv. 180 deg rotation - cart. axis [0,1,0]   

 cryst.   s( 8) = (     1          0          0      )
                  (    -1         -1          0      )
                  (     0          0          1      )

 cart.    s( 8) = (  1.0000000  0.0000000  0.0000000 )
                  (  0.0000000 -1.0000000  0.0000000 )
                  (  0.0000000  0.0000000  1.0000000 )


      isym =  9     inv. 120 deg rotation - cryst. axis [0,0,1]  

 cryst.   s( 9) = (     0         -1          0      )
                  (     1          1          0      )
                  (     0          0         -1      )

 cart.    s( 9) = (  0.5000000  0.8660254  0.0000000 )
                  ( -0.8660254  0.5000000  0.0000000 )
                  (  0.0000000  0.0000000 -1.0000000 )


      isym = 10     inv. 120 deg rotation - cryst. axis [0,0,-1] 

 cryst.   s(10) = (     1          1          0      )
                  (    -1          0          0      )
                  (     0          0         -1      )

 cart.    s(10) = (  0.5000000 -0.8660254  0.0000000 )
                  (  0.8660254  0.5000000  0.0000000 )
                  (  0.0000000  0.0000000 -1.0000000 )


      isym = 11     inv. 180 deg rotation - cryst. axis [1,-1,0] 

 cryst.   s(11) = (     0          1          0      )
                  (     1          0          0      )
                  (     0          0          1      )

 cart.    s(11) = ( -0.5000000  0.8660254  0.0000000 )
                  (  0.8660254  0.5000000  0.0000000 )
                  (  0.0000000  0.0000000  1.0000000 )


      isym = 12     inv. 180 deg rotation - cryst. axis [2,1,0]  

 cryst.   s(12) = (    -1         -1          0      )
                  (     0          1          0      )
                  (     0          0          1      )

 cart.    s(12) = ( -0.5000000 -0.8660254  0.0000000 )
                  ( -0.8660254  0.5000000  0.0000000 )
                  (  0.0000000  0.0000000  1.0000000 )


     point group D_3d (-3m) 
     there are  6 classes
     the character table:

       E     2C3   3C2'  i     2S6   3s_d 
A_1g   1.00  1.00  1.00  1.00  1.00  1.00
A_2g   1.00  1.00 -1.00  1.00  1.00 -1.00
E_g    2.00 -1.00  0.00  2.00 -1.00  0.00
A_1u   1.00  1.00  1.00 -1.00 -1.00 -1.00
A_2u   1.00  1.00 -1.00 -1.00 -1.00  1.00
E_u    2.00 -1.00  0.00 -2.00  1.00  0.00

     the symmetry operations in each class and the name of the first element:

     E        1
          identity                                               
     2C3      3    4
          120 deg rotation - cryst. axis [0,0,1]                 
     3C2'     2    6    5
          180 deg rotation - cart. axis [0,1,0]                  
     i        7
          inversion                                              
     2S6      9   10
          inv. 120 deg rotation - cryst. axis [0,0,1]            
     3s_d     8   12   11
          inv. 180 deg rotation - cart. axis [0,1,0]             

   Cartesian axes

     site n.     atom                  positions (alat units)
         1           Cr  tau(   1) = (   0.5000000   0.2886751   0.0000000  )
         2           Cr  tau(   2) = (   0.0000000   0.5773503   0.0000000  )
         3           I   tau(   3) = (   0.3246775   0.5623579   0.2277694  )
         4           I   tau(   4) = (  -0.1753225   0.3036675   0.2277694  )
         5           I   tau(   5) = (   0.3506450   0.0000000   0.2277694  )
         6           I   tau(   6) = (   0.1753225   0.3036675  -0.2277694  )
         7           I   tau(   7) = (   0.6493550   0.0000000  -0.2277694  )
         8           I   tau(   8) = (  -0.3246775   0.5623579  -0.2277694  )

   Crystallographic axes

     site n.     atom                  positions (cryst. coord.)
         1           Cr  tau(   1) = (  0.6666667  0.3333333  0.0000000  )
         2           Cr  tau(   2) = (  0.3333333  0.6666667  0.0000000  )
         3           I   tau(   3) = (  0.6493550  0.6493550  0.1182283  )
         4           I   tau(   4) = (  0.0000000  0.3506450  0.1182283  )
         5           I   tau(   5) = (  0.3506450  0.0000000  0.1182283  )
         6           I   tau(   6) = (  0.3506450  0.3506450 -0.1182283  )
         7           I   tau(   7) = (  0.6493550  0.0000000 -0.1182283  )
         8           I   tau(   8) = (  0.0000000  0.6493550 -0.1182283  )

     number of k points=    37  Gaussian smearing, width (Ry)=  0.0050
                       cart. coord. in units 2pi/alat
        k(    1) = (   0.0000000   0.0000000   0.0000000), wk =   0.0030864
        k(    2) = (   0.0000000   0.0641500   0.0000000), wk =   0.0185185
        k(    3) = (   0.0000000   0.1283001   0.0000000), wk =   0.0185185
        k(    4) = (   0.0000000   0.1924501   0.0000000), wk =   0.0185185
        k(    5) = (   0.0000000   0.2566001   0.0000000), wk =   0.0185185
        k(    6) = (   0.0000000   0.3207501   0.0000000), wk =   0.0185185
        k(    7) = (   0.0000000   0.3849002   0.0000000), wk =   0.0185185
        k(    8) = (   0.0000000   0.4490502   0.0000000), wk =   0.0185185
        k(    9) = (   0.0000000   0.5132002   0.0000000), wk =   0.0185185
        k(   10) = (   0.0000000  -0.5773503   0.0000000), wk =   0.0092593
        k(   11) = (   0.0555556   0.0962250   0.0000000), wk =   0.0185185
        k(   12) = (   0.0555556   0.1603751   0.0000000), wk =   0.0370370
        k(   13) = (   0.0555556   0.2245251   0.0000000), wk =   0.0370370
        k(   14) = (   0.0555556   0.2886751   0.0000000), wk =   0.0370370
        k(   15) = (   0.0555556   0.3528252   0.0000000), wk =   0.0370370
        k(   16) = (   0.0555556   0.4169752   0.0000000), wk =   0.0370370
        k(   17) = (   0.0555556   0.4811252   0.0000000), wk =   0.0370370
        k(   18) = (   0.0555556   0.5452753   0.0000000), wk =   0.0370370
        k(   19) = (   0.1111111   0.1924501   0.0000000), wk =   0.0185185
        k(   20) = (   0.1111111   0.2566001   0.0000000), wk =   0.0370370
        k(   21) = (   0.1111111   0.3207501   0.0000000), wk =   0.0370370
        k(   22) = (   0.1111111   0.3849002   0.0000000), wk =   0.0370370
        k(   23) = (   0.1111111   0.4490502   0.0000000), wk =   0.0370370
        k(   24) = (   0.1111111   0.5132002   0.0000000), wk =   0.0370370
        k(   25) = (   0.1111111   0.5773503   0.0000000), wk =   0.0185185
        k(   26) = (   0.1666667   0.2886751   0.0000000), wk =   0.0185185
        k(   27) = (   0.1666667   0.3528252   0.0000000), wk =   0.0370370
        k(   28) = (   0.1666667   0.4169752   0.0000000), wk =   0.0370370
        k(   29) = (   0.1666667   0.4811252   0.0000000), wk =   0.0370370
        k(   30) = (   0.1666667   0.5452753   0.0000000), wk =   0.0370370
        k(   31) = (   0.2222222   0.3849002   0.0000000), wk =   0.0185185
        k(   32) = (   0.2222222   0.4490502   0.0000000), wk =   0.0370370
        k(   33) = (   0.2222222   0.5132002   0.0000000), wk =   0.0370370
        k(   34) = (   0.2222222   0.5773503   0.0000000), wk =   0.0185185
        k(   35) = (   0.2777778   0.4811252   0.0000000), wk =   0.0185185
        k(   36) = (   0.2777778   0.5452753   0.0000000), wk =   0.0370370
        k(   37) = (   0.3333333   0.5773503   0.0000000), wk =   0.0061728

                       cryst. coord.
        k(    1) = (   0.0000000   0.0000000   0.0000000), wk =   0.0030864
        k(    2) = (   0.0000000   0.0555556   0.0000000), wk =   0.0185185
        k(    3) = (   0.0000000   0.1111111   0.0000000), wk =   0.0185185
        k(    4) = (   0.0000000   0.1666667   0.0000000), wk =   0.0185185
        k(    5) = (   0.0000000   0.2222222   0.0000000), wk =   0.0185185
        k(    6) = (   0.0000000   0.2777778   0.0000000), wk =   0.0185185
        k(    7) = (   0.0000000   0.3333333   0.0000000), wk =   0.0185185
        k(    8) = (   0.0000000   0.3888889   0.0000000), wk =   0.0185185
        k(    9) = (   0.0000000   0.4444444   0.0000000), wk =   0.0185185
        k(   10) = (   0.0000000  -0.5000000   0.0000000), wk =   0.0092593
        k(   11) = (   0.0555556   0.0555556   0.0000000), wk =   0.0185185
        k(   12) = (   0.0555556   0.1111111   0.0000000), wk =   0.0370370
        k(   13) = (   0.0555556   0.1666667   0.0000000), wk =   0.0370370
        k(   14) = (   0.0555556   0.2222222   0.0000000), wk =   0.0370370
        k(   15) = (   0.0555556   0.2777778   0.0000000), wk =   0.0370370
        k(   16) = (   0.0555556   0.3333333   0.0000000), wk =   0.0370370
        k(   17) = (   0.0555556   0.3888889   0.0000000), wk =   0.0370370
        k(   18) = (   0.0555556   0.4444444   0.0000000), wk =   0.0370370
        k(   19) = (   0.1111111   0.1111111   0.0000000), wk =   0.0185185
        k(   20) = (   0.1111111   0.1666667   0.0000000), wk =   0.0370370
        k(   21) = (   0.1111111   0.2222222   0.0000000), wk =   0.0370370
        k(   22) = (   0.1111111   0.2777778   0.0000000), wk =   0.0370370
        k(   23) = (   0.1111111   0.3333333   0.0000000), wk =   0.0370370
        k(   24) = (   0.1111111   0.3888889   0.0000000), wk =   0.0370370
        k(   25) = (   0.1111111   0.4444444   0.0000000), wk =   0.0185185
        k(   26) = (   0.1666667   0.1666667   0.0000000), wk =   0.0185185
        k(   27) = (   0.1666667   0.2222222   0.0000000), wk =   0.0370370
        k(   28) = (   0.1666667   0.2777778   0.0000000), wk =   0.0370370
        k(   29) = (   0.1666667   0.3333333   0.0000000), wk =   0.0370370
        k(   30) = (   0.1666667   0.3888889   0.0000000), wk =   0.0370370
        k(   31) = (   0.2222222   0.2222222   0.0000000), wk =   0.0185185
        k(   32) = (   0.2222222   0.2777778   0.0000000), wk =   0.0370370
        k(   33) = (   0.2222222   0.3333333   0.0000000), wk =   0.0370370
        k(   34) = (   0.2222222   0.3888889   0.0000000), wk =   0.0185185
        k(   35) = (   0.2777778   0.2777778   0.0000000), wk =   0.0185185
        k(   36) = (   0.2777778   0.3333333   0.0000000), wk =   0.0370370
        k(   37) = (   0.3333333   0.3333333   0.0000000), wk =   0.0061728

     Dense  grid:   420595 G-vectors     FFT dimensions: (  80,  80, 160)

     Dynamical RAM for                 wfc:       2.81 MB

     Dynamical RAM for     wfc (w. buffer):     210.53 MB

     Dynamical RAM for           str. fact:       1.07 MB

     Dynamical RAM for           local pot:       0.00 MB

     Dynamical RAM for          nlocal pot:       9.62 MB

     Dynamical RAM for                qrad:       3.05 MB

     Dynamical RAM for          rho,v,vnew:       7.31 MB

     Dynamical RAM for               rhoin:       2.44 MB

     Dynamical RAM for            rho*nmix:      17.11 MB

     Dynamical RAM for           G-vectors:       2.27 MB

     Dynamical RAM for          h,s,v(r/c):       0.04 MB

     Dynamical RAM for          <psi|beta>:       0.09 MB

     Dynamical RAM for                 psi:       5.61 MB

     Dynamical RAM for                hpsi:       5.61 MB

     Dynamical RAM for      wfcinit/wfcrot:       5.93 MB

     Estimated static dynamical RAM per process >     241.99 MB

     Estimated max dynamical RAM per process >     270.46 MB

     Estimated total dynamical RAM >       3.17 GB
 ----2D----2D----2D----2D----2D----2D----2D----2D----2D----2D----2D----2D
  The code is running with the 2D cutoff
  Please refer to:
  Sohier, T., Calandra, M., & Mauri, F. (2017), 
  Density functional perturbation theory for gated two-dimensional heterostructu
 res:
  Theoretical developments and application to flexural phonons in graphene.
  Physical Review B, 96(7), 75448. https://doi.org/10.1103/PhysRevB.96.075448
 ----2D----2D----2D----2D----2D----2D----2D----2D----2D----2D----2D----2D
     Generating pointlists ...
     new r_m :   0.1637 (alat units)  2.1245 (a.u.) for type    1
     new r_m :   0.1637 (alat units)  2.1245 (a.u.) for type    2

     Initial potential from superposition of free atoms

     starting charge      69.9974, renormalised to      70.0000

     negative rho (up, down):  1.289E-07 1.515E-08
     Starting wfcs are   44 randomized atomic wfcs

     total cpu time spent up to now is       20.1 secs

     Self-consistent Calculation

     iteration #  1     ecut=    90.00 Ry     beta= 0.70
     Davidson diagonalization with overlap

---- Real-time Memory Report at c_bands before calling an iterative solver
           383 MiB given to the printing process from OS
             0 MiB allocation reported by mallinfo(arena+hblkhd)
        173334 MiB available memory on the node where the printing process lives
------------------
     c_bands:  5 eigenvalues not converged
     c_bands:  1 eigenvalues not converged
     c_bands:  5 eigenvalues not converged
     c_bands:  5 eigenvalues not converged
     c_bands:  4 eigenvalues not converged
     c_bands:  3 eigenvalues not converged
     c_bands:  1 eigenvalues not converged
     c_bands:  5 eigenvalues not converged
     c_bands:  5 eigenvalues not converged
     c_bands:  5 eigenvalues not converged
     c_bands:  5 eigenvalues not converged
     c_bands:  5 eigenvalues not converged
     c_bands:  5 eigenvalues not converged
     c_bands:  5 eigenvalues not converged
     c_bands:  5 eigenvalues not converged
     c_bands:  4 eigenvalues not converged
     c_bands:  3 eigenvalues not converged
     c_bands:  5 eigenvalues not converged
     c_bands:  2 eigenvalues not converged
     ethr =  5.00E-06,  avg # of iterations = 19.2

     negative rho (up, down):  3.375E-08 1.635E-09

     total cpu time spent up to now is      415.6 secs

     total energy              =    -511.37672200 Ry
     estimated scf accuracy    <       4.55749746 Ry

     total magnetization       =     6.00 Bohr mag/cell
     absolute magnetization    =    10.88 Bohr mag/cell

     iteration #  2     ecut=    90.00 Ry     beta= 0.70
     Davidson diagonalization with overlap

---- Real-time Memory Report at c_bands before calling an iterative solver
           418 MiB given to the printing process from OS
             0 MiB allocation reported by mallinfo(arena+hblkhd)
        160460 MiB available memory on the node where the printing process lives
------------------
     ethr =  6.51E-03,  avg # of iterations =  6.2

     total cpu time spent up to now is      552.9 secs

     total energy              =    -511.49753606 Ry
     estimated scf accuracy    <       0.97997691 Ry

     total magnetization       =     6.00 Bohr mag/cell
     absolute magnetization    =    10.59 Bohr mag/cell

     iteration #  3     ecut=    90.00 Ry     beta= 0.70
     Davidson diagonalization with overlap

---- Real-time Memory Report at c_bands before calling an iterative solver
           421 MiB given to the printing process from OS
             0 MiB allocation reported by mallinfo(arena+hblkhd)
        159478 MiB available memory on the node where the printing process lives
------------------
     ethr =  1.40E-03,  avg # of iterations =  7.8

     total cpu time spent up to now is      724.9 secs

     total energy              =    -511.47024901 Ry
     estimated scf accuracy    <       6.09158497 Ry

     total magnetization       =     6.00 Bohr mag/cell
     absolute magnetization    =     6.39 Bohr mag/cell

     iteration #  4     ecut=    90.00 Ry     beta= 0.70
     Davidson diagonalization with overlap

---- Real-time Memory Report at c_bands before calling an iterative solver
           423 MiB given to the printing process from OS
             0 MiB allocation reported by mallinfo(arena+hblkhd)
        158802 MiB available memory on the node where the printing process lives
------------------
     c_bands:  2 eigenvalues not converged
     ethr =  1.40E-03,  avg # of iterations =  8.1

     total cpu time spent up to now is      904.1 secs

     total energy              =    -512.05831365 Ry
     estimated scf accuracy    <       0.10382078 Ry

     total magnetization       =     6.00 Bohr mag/cell
     absolute magnetization    =     7.52 Bohr mag/cell

     iteration #  5     ecut=    90.00 Ry     beta= 0.70
     Davidson diagonalization with overlap

---- Real-time Memory Report at c_bands before calling an iterative solver
           425 MiB given to the printing process from OS
             0 MiB allocation reported by mallinfo(arena+hblkhd)
        158493 MiB available memory on the node where the printing process lives
------------------
     ethr =  1.48E-04,  avg # of iterations =  6.5

     total cpu time spent up to now is     1049.7 secs

     total energy              =    -512.08623086 Ry
     estimated scf accuracy    <       0.00434827 Ry

     total magnetization       =     6.00 Bohr mag/cell
     absolute magnetization    =     7.49 Bohr mag/cell

     iteration #  6     ecut=    90.00 Ry     beta= 0.70
     Davidson diagonalization with overlap

---- Real-time Memory Report at c_bands before calling an iterative solver
           427 MiB given to the printing process from OS
             0 MiB allocation reported by mallinfo(arena+hblkhd)
        161725 MiB available memory on the node where the printing process lives
------------------
     ethr =  6.21E-06,  avg # of iterations =  4.3

     total cpu time spent up to now is     1125.9 secs

     total energy              =    -512.08806159 Ry
     estimated scf accuracy    <       0.00122943 Ry

     total magnetization       =     6.00 Bohr mag/cell
     absolute magnetization    =     7.34 Bohr mag/cell

     iteration #  7     ecut=    90.00 Ry     beta= 0.70
     Davidson diagonalization with overlap

---- Real-time Memory Report at c_bands before calling an iterative solver
           429 MiB given to the printing process from OS
             0 MiB allocation reported by mallinfo(arena+hblkhd)
        163407 MiB available memory on the node where the printing process lives
------------------
     ethr =  1.76E-06,  avg # of iterations =  2.8

     total cpu time spent up to now is     1195.1 secs

     total energy              =    -512.08853021 Ry
     estimated scf accuracy    <       0.00022022 Ry

     total magnetization       =     6.00 Bohr mag/cell
     absolute magnetization    =     7.15 Bohr mag/cell

     iteration #  8     ecut=    90.00 Ry     beta= 0.70
     Davidson diagonalization with overlap

---- Real-time Memory Report at c_bands before calling an iterative solver
           431 MiB given to the printing process from OS
             0 MiB allocation reported by mallinfo(arena+hblkhd)
        161646 MiB available memory on the node where the printing process lives
------------------
     ethr =  3.15E-07,  avg # of iterations =  3.1

     total cpu time spent up to now is     1270.4 secs

     total energy              =    -512.08856684 Ry
     estimated scf accuracy    <       0.00000420 Ry

     total magnetization       =     6.00 Bohr mag/cell
     absolute magnetization    =     7.13 Bohr mag/cell

     iteration #  9     ecut=    90.00 Ry     beta= 0.70
     Davidson diagonalization with overlap

---- Real-time Memory Report at c_bands before calling an iterative solver
           434 MiB given to the printing process from OS
             0 MiB allocation reported by mallinfo(arena+hblkhd)
        162141 MiB available memory on the node where the printing process lives
------------------
     ethr =  6.00E-09,  avg # of iterations =  5.4

     total cpu time spent up to now is     1373.3 secs

     total energy              =    -512.08856913 Ry
     estimated scf accuracy    <       0.00000338 Ry

     total magnetization       =     6.00 Bohr mag/cell
     absolute magnetization    =     7.13 Bohr mag/cell

     iteration # 10     ecut=    90.00 Ry     beta= 0.70
     Davidson diagonalization with overlap

---- Real-time Memory Report at c_bands before calling an iterative solver
           436 MiB given to the printing process from OS
             0 MiB allocation reported by mallinfo(arena+hblkhd)
        161328 MiB available memory on the node where the printing process lives
------------------
     ethr =  4.83E-09,  avg # of iterations =  1.6

     total cpu time spent up to now is     1431.6 secs

     total energy              =    -512.08856928 Ry
     estimated scf accuracy    <       0.00000050 Ry

     total magnetization       =     6.00 Bohr mag/cell
     absolute magnetization    =     7.13 Bohr mag/cell

     iteration # 11     ecut=    90.00 Ry     beta= 0.70
     Davidson diagonalization with overlap

---- Real-time Memory Report at c_bands before calling an iterative solver
           436 MiB given to the printing process from OS
             0 MiB allocation reported by mallinfo(arena+hblkhd)
        161216 MiB available memory on the node where the printing process lives
------------------
     ethr =  7.19E-10,  avg # of iterations =  3.4

     total cpu time spent up to now is     1515.4 secs

     total energy              =    -512.08856943 Ry
     estimated scf accuracy    <       0.00000002 Ry

     total magnetization       =     6.00 Bohr mag/cell
     absolute magnetization    =     7.13 Bohr mag/cell

     iteration # 12     ecut=    90.00 Ry     beta= 0.70
     Davidson diagonalization with overlap

---- Real-time Memory Report at c_bands before calling an iterative solver
           436 MiB given to the printing process from OS
             0 MiB allocation reported by mallinfo(arena+hblkhd)
        161116 MiB available memory on the node where the printing process lives
------------------
     ethr =  3.35E-11,  avg # of iterations =  3.2

     total cpu time spent up to now is     1590.3 secs

     total energy              =    -512.08856943 Ry
     estimated scf accuracy    <          1.2E-09 Ry

     total magnetization       =     6.00 Bohr mag/cell
     absolute magnetization    =     7.13 Bohr mag/cell

     iteration # 13     ecut=    90.00 Ry     beta= 0.70
     Davidson diagonalization with overlap

---- Real-time Memory Report at c_bands before calling an iterative solver
           436 MiB given to the printing process from OS
             0 MiB allocation reported by mallinfo(arena+hblkhd)
        161101 MiB available memory on the node where the printing process lives
------------------
     ethr =  1.64E-12,  avg # of iterations =  4.3

     total cpu time spent up to now is     1678.2 secs

     total energy              =    -512.08856943 Ry
     estimated scf accuracy    <          3.6E-10 Ry

     total magnetization       =     6.00 Bohr mag/cell
     absolute magnetization    =     7.13 Bohr mag/cell

     iteration # 14     ecut=    90.00 Ry     beta= 0.70
     Davidson diagonalization with overlap

---- Real-time Memory Report at c_bands before calling an iterative solver
           437 MiB given to the printing process from OS
             0 MiB allocation reported by mallinfo(arena+hblkhd)
        161076 MiB available memory on the node where the printing process lives
------------------
     ethr =  5.10E-13,  avg # of iterations =  2.5

     total cpu time spent up to now is     1750.7 secs

     total energy              =    -512.08856943 Ry
     estimated scf accuracy    <          3.7E-12 Ry

     total magnetization       =     6.00 Bohr mag/cell
     absolute magnetization    =     7.13 Bohr mag/cell

     iteration # 15     ecut=    90.00 Ry     beta= 0.70
     Davidson diagonalization with overlap

---- Real-time Memory Report at c_bands before calling an iterative solver
           437 MiB given to the printing process from OS
             0 MiB allocation reported by mallinfo(arena+hblkhd)
        161042 MiB available memory on the node where the printing process lives
------------------
     ethr =  1.00E-13,  avg # of iterations =  2.2

     total cpu time spent up to now is     1816.8 secs

     total energy              =    -512.08856943 Ry
     estimated scf accuracy    <          4.9E-13 Ry

     total magnetization       =     6.00 Bohr mag/cell
     absolute magnetization    =     7.13 Bohr mag/cell

     iteration # 16     ecut=    90.00 Ry     beta= 0.70
     Davidson diagonalization with overlap

---- Real-time Memory Report at c_bands before calling an iterative solver
           437 MiB given to the printing process from OS
             0 MiB allocation reported by mallinfo(arena+hblkhd)
        160957 MiB available memory on the node where the printing process lives
------------------
     ethr =  1.00E-13,  avg # of iterations =  1.0
 
     Magnetic moment per site  (integrated on atomic sphere of radius R)
     atom   1 (R=0.164)  charge= 12.4362  magn=  2.9402
     atom   2 (R=0.164)  charge= 12.4362  magn=  2.9402
     atom   3 (R=0.164)  charge=  4.1210  magn= -0.0522
     atom   4 (R=0.164)  charge=  4.1210  magn= -0.0522
     atom   5 (R=0.164)  charge=  4.1210  magn= -0.0522
     atom   6 (R=0.164)  charge=  4.1210  magn= -0.0522
     atom   7 (R=0.164)  charge=  4.1210  magn= -0.0522
     atom   8 (R=0.164)  charge=  4.1210  magn= -0.0522

     total cpu time spent up to now is     1869.5 secs

     End of self-consistent calculation

 ------ SPIN UP ------------


          k = 0.0000 0.0000 0.0000 ( 52593 PWs)   bands (ev):

   -77.4067 -77.4064 -49.1409 -49.1399 -49.1314 -49.1314 -49.1285 -49.1285
   -18.4876 -17.7429 -17.4392 -17.4392 -17.3452 -17.3452 -10.1009  -9.5993
    -9.0569  -9.0569  -9.0104  -9.0104  -8.6898  -8.2618  -8.2618  -8.2296
    -7.8281  -7.8281  -7.3842  -6.6895  -6.6895  -6.6538  -6.4589  -6.1669
    -6.1669  -6.1100  -6.0321  -6.0321  -5.6175  -5.6175  -4.4435  -4.4435
    -4.0114  -4.0114

     occupation numbers 
     1.0000   1.0000   1.0000   1.0000   1.0000   1.0000   1.0000   1.0000
     1.0000   1.0000   1.0000   1.0000   1.0000   1.0000   1.0000   1.0000
     1.0000   1.0000   1.0000   1.0000   1.0000   1.0000   1.0000   1.0000
     1.0000   1.0000   1.0000   1.0000   1.0000   1.0000   1.0000   1.0000
     1.0000   1.0000   1.0000   1.0000   1.0000   1.0000   0.0000   0.0000
     0.0000   0.0000

          k = 0.0000 0.0642 0.0000 ( 52624 PWs)   bands (ev):

   -77.4067 -77.4064 -49.1409 -49.1399 -49.1314 -49.1314 -49.1285 -49.1285
   -18.4810 -17.7391 -17.4488 -17.4433 -17.3457 -17.3453 -10.1011  -9.5978
    -9.0628  -9.0367  -9.0268  -9.0198  -8.6663  -8.2716  -8.2632  -8.1903
    -7.8307  -7.8120  -7.3761  -6.7455  -6.7153  -6.5972  -6.4478  -6.2288
    -6.1821  -6.0875  -6.0228  -6.0228  -5.6307  -5.6116  -4.4429  -4.4397
    -4.0405  -4.0163

     occupation numbers 
     1.0000   1.0000   1.0000   1.0000   1.0000   1.0000   1.0000   1.0000
     1.0000   1.0000   1.0000   1.0000   1.0000   1.0000   1.0000   1.0000
     1.0000   1.0000   1.0000   1.0000   1.0000   1.0000   1.0000   1.0000
     1.0000   1.0000   1.0000   1.0000   1.0000   1.0000   1.0000   1.0000
     1.0000   1.0000   1.0000   1.0000   1.0000   1.0000   0.0000   0.0000
     0.0000   0.0000

          k = 0.0000 0.1283 0.0000 ( 52622 PWs)   bands (ev):

   -77.4067 -77.4064 -49.1409 -49.1400 -49.1314 -49.1314 -49.1286 -49.1285
   -18.4614 -17.7280 -17.4762 -17.4543 -17.3480 -17.3468 -10.1003  -9.5940
    -9.0790  -9.0622  -9.0504  -8.9656  -8.6091  -8.2998  -8.2682  -8.0843
    -7.8382  -7.7658  -7.3559  -6.8164  -6.7753  -6.5243  -6.4507  -6.3336
    -6.2161  -6.0697  -6.0053  -6.0047  -5.6627  -5.5973  -4.4412  -4.4287
    -4.1151  -4.0320

     occupation numbers 
     1.0000   1.0000   1.0000   1.0000   1.0000   1.0000   1.0000   1.0000
     1.0000   1.0000   1.0000   1.0000   1.0000   1.0000   1.0000   1.0000
     1.0000   1.0000   1.0000   1.0000   1.0000   1.0000   1.0000   1.0000
     1.0000   1.0000   1.0000   1.0000   1.0000   1.0000   1.0000   1.0000
     1.0000   1.0000   1.0000   1.0000   1.0000   1.0000   0.0000   0.0000
     0.0000   0.0000

          k = 0.0000 0.1925 0.0000 ( 52592 PWs)   bands (ev):

   -77.4067 -77.4065 -49.1409 -49.1400 -49.1315 -49.1313 -49.1287 -49.1285
   -18.4292 -17.7100 -17.5191 -17.4695 -17.3528 -17.3518 -10.0962  -9.5884
    -9.1075  -9.0913  -9.0649  -8.8705  -8.5386  -8.3412  -8.2766  -7.9393
    -7.8478  -7.6955  -7.3347  -6.8866  -6.8480  -6.5813  -6.4492  -6.3629
    -6.2523  -6.0569  -5.9931  -5.9898  -5.6992  -5.5820  -4.4384  -4.4125
    -4.2053  -4.0603

     occupation numbers 
     1.0000   1.0000   1.0000   1.0000   1.0000   1.0000   1.0000   1.0000
     1.0000   1.0000   1.0000   1.0000   1.0000   1.0000   1.0000   1.0000
     1.0000   1.0000   1.0000   1.0000   1.0000   1.0000   1.0000   1.0000
     1.0000   1.0000   1.0000   1.0000   1.0000   1.0000   1.0000   1.0000
     1.0000   1.0000   1.0000   1.0000   1.0000   1.0000   0.0000   0.0000
     0.0000   0.0000

          k = 0.0000 0.2566 0.0000 ( 52620 PWs)   bands (ev):

   -77.4066 -77.4065 -49.1408 -49.1400 -49.1315 -49.1312 -49.1288 -49.1284
   -18.3853 -17.6857 -17.5750 -17.4863 -17.3619 -17.3596 -10.0889  -9.5783
    -9.1436  -9.1033  -9.0533  -8.7627  -8.4829  -8.3730  -8.2871  -7.8810
    -7.7579  -7.6113  -7.3290  -6.9475  -6.9390  -6.7615  -6.3778  -6.3627
    -6.2798  -6.0452  -5.9897  -5.9845  -5.7315  -5.5725  -4.4346  -4.3917
    -4.2801  -4.1012

     occupation numbers 
     1.0000   1.0000   1.0000   1.0000   1.0000   1.0000   1.0000   1.0000
     1.0000   1.0000   1.0000   1.0000   1.0000   1.0000   1.0000   1.0000
     1.0000   1.0000   1.0000   1.0000   1.0000   1.0000   1.0000   1.0000
     1.0000   1.0000   1.0000   1.0000   1.0000   1.0000   1.0000   1.0000
     1.0000   1.0000   1.0000   1.0000   1.0000   1.0000   0.0000   0.0000
     0.0000   0.0000

          k = 0.0000 0.3208 0.0000 ( 52586 PWs)   bands (ev):

   -77.4066 -77.4065 -49.1408 -49.1401 -49.1315 -49.1310 -49.1289 -49.1284
   -18.3312 -17.6561 -17.6413 -17.5027 -17.3779 -17.3674 -10.0821  -9.5574
    -9.1773  -9.0990  -9.0104  -8.6624  -8.5099  -8.3265  -8.2961  -7.9047
    -7.6065  -7.5267  -7.3568  -7.0924  -6.9820  -6.8603  -6.3735  -6.3350
    -6.2829  -6.0346  -5.9947  -5.9869  -5.7579  -5.5707  -4.4294  -4.3644
    -4.3227  -4.1519

     occupation numbers 
     1.0000   1.0000   1.0000   1.0000   1.0000   1.0000   1.0000   1.0000
     1.0000   1.0000   1.0000   1.0000   1.0000   1.0000   1.0000   1.0000
     1.0000   1.0000   1.0000   1.0000   1.0000   1.0000   1.0000   1.0000
     1.0000   1.0000   1.0000   1.0000   1.0000   1.0000   1.0000   1.0000
     1.0000   1.0000   1.0000   1.0000   1.0000   1.0000   0.0000   0.0000
     0.0000   0.0000

          k = 0.0000 0.3849 0.0000 ( 52554 PWs)   bands (ev):

   -77.4066 -77.4065 -49.1407 -49.1401 -49.1316 -49.1309 -49.1290 -49.1284
   -18.2690 -17.7147 -17.6226 -17.5170 -17.3999 -17.3751 -10.0794  -9.5221
    -9.2064  -9.0770  -8.9384  -8.5912  -8.5796  -8.2953  -8.2384  -7.9368
    -7.5669  -7.4613  -7.4201  -7.1885  -6.9747  -6.8803  -6.3985  -6.3405
    -6.2684  -6.0272  -6.0055  -5.9787  -5.7791  -5.5747  -4.4220  -4.3474
    -4.3164  -4.2076

     occupation numbers 
     1.0000   1.0000   1.0000   1.0000   1.0000   1.0000   1.0000   1.0000
     1.0000   1.0000   1.0000   1.0000   1.0000   1.0000   1.0000   1.0000
     1.0000   1.0000   1.0000   1.0000   1.0000   1.0000   1.0000   1.0000
     1.0000   1.0000   1.0000   1.0000   1.0000   1.0000   1.0000   1.0000
     1.0000   1.0000   1.0000   1.0000   1.0000   1.0000   0.0000   0.0000
     0.0000   0.0000

          k = 0.0000 0.4491 0.0000 ( 52564 PWs)   bands (ev):

   -77.4066 -77.4065 -49.1407 -49.1402 -49.1316 -49.1308 -49.1292 -49.1283
   -18.2027 -17.7899 -17.5871 -17.5280 -17.4267 -17.3815 -10.0809  -9.4784
    -9.2287  -9.0401  -8.8443  -8.6553  -8.5635  -8.2775  -8.1432  -7.9787
    -7.6984  -7.5226  -7.4062  -7.1198  -6.9298  -6.8624  -6.4342  -6.3695
    -6.2771  -6.0342  -6.0093  -5.9456  -5.7957  -5.5829  -4.4108  -4.3511
    -4.2675  -4.2621

     occupation numbers 
     1.0000   1.0000   1.0000   1.0000   1.0000   1.0000   1.0000   1.0000
     1.0000   1.0000   1.0000   1.0000   1.0000   1.0000   1.0000   1.0000
     1.0000   1.0000   1.0000   1.0000   1.0000   1.0000   1.0000   1.0000
     1.0000   1.0000   1.0000   1.0000   1.0000   1.0000   1.0000   1.0000
     1.0000   1.0000   1.0000   1.0000   1.0000   1.0000   0.0000   0.0000
     0.0000   0.0000

          k = 0.0000 0.5132 0.0000 ( 52580 PWs)   bands (ev):

   -77.4066 -77.4065 -49.1406 -49.1402 -49.1316 -49.1307 -49.1293 -49.1283
   -18.1418 -17.8566 -17.5532 -17.5350 -17.4551 -17.3857 -10.0839  -9.4412
    -9.2428  -8.9984  -8.7448  -8.7212  -8.5718  -8.2506  -8.0574  -8.0410
    -7.8194  -7.6123  -7.3843  -7.0367  -6.8722  -6.8278  -6.4702  -6.4169
    -6.2871  -6.0507  -6.0054  -5.9072  -5.8066  -5.5926  -4.3945  -4.3527
    -4.3085  -4.2239

     occupation numbers 
     1.0000   1.0000   1.0000   1.0000   1.0000   1.0000   1.0000   1.0000
     1.0000   1.0000   1.0000   1.0000   1.0000   1.0000   1.0000   1.0000
     1.0000   1.0000   1.0000   1.0000   1.0000   1.0000   1.0000   1.0000
     1.0000   1.0000   1.0000   1.0000   1.0000   1.0000   1.0000   1.0000
     1.0000   1.0000   1.0000   1.0000   1.0000   1.0000   0.0000   0.0000
     0.0000   0.0000

          k = 0.0000-0.5774 0.0000 ( 52578 PWs)   bands (ev):

   -77.4066 -77.4065 -49.1406 -49.1403 -49.1316 -49.1307 -49.1293 -49.1283
   -18.1125 -17.8879 -17.5374 -17.5346 -17.4719 -17.3871 -10.0853  -9.4265
    -9.2476  -8.9768  -8.7509  -8.6891  -8.5891  -8.2344  -8.0852  -8.0173
    -7.8567  -7.6548  -7.3779  -7.0054  -6.8437  -6.8085  -6.4869  -6.4431
    -6.2898  -6.0584  -6.0037  -5.8906  -5.8104  -5.5974  -4.3818  -4.3531
    -4.3321  -4.2065

     occupation numbers 
     1.0000   1.0000   1.0000   1.0000   1.0000   1.0000   1.0000   1.0000
     1.0000   1.0000   1.0000   1.0000   1.0000   1.0000   1.0000   1.0000
     1.0000   1.0000   1.0000   1.0000   1.0000   1.0000   1.0000   1.0000
     1.0000   1.0000   1.0000   1.0000   1.0000   1.0000   1.0000   1.0000
     1.0000   1.0000   1.0000   1.0000   1.0000   1.0000   0.0000   0.0000
     0.0000   0.0000

          k = 0.0556 0.0962 0.0000 ( 52597 PWs)   bands (ev):

   -77.4067 -77.4064 -49.1409 -49.1400 -49.1314 -49.1314 -49.1286 -49.1285
   -18.4679 -17.7317 -17.4667 -17.4514 -17.3468 -17.3465 -10.1007  -9.5953
    -9.0767  -9.0551  -9.0368  -8.9879  -8.6263  -8.2927  -8.2643  -8.1181
    -7.8356  -7.7810  -7.3621  -6.7985  -6.7561  -6.5449  -6.4374  -6.3154
    -6.2031  -6.0731  -6.0113  -6.0085  -5.6529  -5.6016  -4.4422  -4.4319
    -4.0937  -4.0250

     occupation numbers 
     1.0000   1.0000   1.0000   1.0000   1.0000   1.0000   1.0000   1.0000
     1.0000   1.0000   1.0000   1.0000   1.0000   1.0000   1.0000   1.0000
     1.0000   1.0000   1.0000   1.0000   1.0000   1.0000   1.0000   1.0000
     1.0000   1.0000   1.0000   1.0000   1.0000   1.0000   1.0000   1.0000
     1.0000   1.0000   1.0000   1.0000   1.0000   1.0000   0.0000   0.0000
     0.0000   0.0000

          k = 0.0556 0.1604 0.0000 ( 52588 PWs)   bands (ev):

   -77.4067 -77.4065 -49.1409 -49.1400 -49.1315 -49.1313 -49.1286 -49.1285
   -18.4419 -17.7171 -17.5006 -17.4658 -17.3506 -17.3494 -10.0972  -9.5914
    -9.0991  -9.0908  -9.0519  -8.9061  -8.5629  -8.3309  -8.2678  -7.9935
    -7.8443  -7.7236  -7.3423  -6.8675  -6.8166  -6.4988  -6.4689  -6.4031
    -6.2272  -6.0593  -6.0036  -5.9882  -5.6857  -5.5869  -4.4412  -4.4175
    -4.1784  -4.0434

     occupation numbers 
     1.0000   1.0000   1.0000   1.0000   1.0000   1.0000   1.0000   1.0000
     1.0000   1.0000   1.0000   1.0000   1.0000   1.0000   1.0000   1.0000
     1.0000   1.0000   1.0000   1.0000   1.0000   1.0000   1.0000   1.0000
     1.0000   1.0000   1.0000   1.0000   1.0000   1.0000   1.0000   1.0000
     1.0000   1.0000   1.0000   1.0000   1.0000   1.0000   0.0000   0.0000
     0.0000   0.0000

          k = 0.0556 0.2245 0.0000 ( 52618 PWs)   bands (ev):

   -77.4067 -77.4065 -49.1408 -49.1400 -49.1315 -49.1312 -49.1287 -49.1285
   -18.4039 -17.6959 -17.5489 -17.4831 -17.3581 -17.3550 -10.0891  -9.5857
    -9.1270  -9.1136  -9.0543  -8.8030  -8.4946  -8.3774  -8.2724  -7.8805
    -7.8168  -7.6480  -7.3329  -6.9407  -6.8822  -6.6654  -6.4199  -6.3997
    -6.2452  -6.0461  -6.0058  -5.9706  -5.7182  -5.5747  -4.4403  -4.3981
    -4.2611  -4.0738

     occupation numbers 
     1.0000   1.0000   1.0000   1.0000   1.0000   1.0000   1.0000   1.0000
     1.0000   1.0000   1.0000   1.0000   1.0000   1.0000   1.0000   1.0000
     1.0000   1.0000   1.0000   1.0000   1.0000   1.0000   1.0000   1.0000
     1.0000   1.0000   1.0000   1.0000   1.0000   1.0000   1.0000   1.0000
     1.0000   1.0000   1.0000   1.0000   1.0000   1.0000   0.0000   0.0000
     0.0000   0.0000

          k = 0.0556 0.2887 0.0000 ( 52597 PWs)   bands (ev):

   -77.4066 -77.4065 -49.1408 -49.1401 -49.1315 -49.1311 -49.1289 -49.1284
   -18.3548 -17.6690 -17.6092 -17.5008 -17.3706 -17.3627 -10.0785  -9.5732
    -9.1596  -9.1153  -9.0304  -8.6988  -8.4833  -8.3775  -8.2694  -7.8930
    -7.6665  -7.5659  -7.3560  -7.0203  -6.9513  -6.8162  -6.4248  -6.3475
    -6.2553  -6.0329  -6.0160  -5.9611  -5.7465  -5.5699  -4.4387  -4.3738
    -4.3163  -4.1157

     occupation numbers 
     1.0000   1.0000   1.0000   1.0000   1.0000   1.0000   1.0000   1.0000
     1.0000   1.0000   1.0000   1.0000   1.0000   1.0000   1.0000   1.0000
     1.0000   1.0000   1.0000   1.0000   1.0000   1.0000   1.0000   1.0000
     1.0000   1.0000   1.0000   1.0000   1.0000   1.0000   1.0000   1.0000
     1.0000   1.0000   1.0000   1.0000   1.0000   1.0000   0.0000   0.0000
     0.0000   0.0000

          k = 0.0556 0.3528 0.0000 ( 52590 PWs)   bands (ev):

   -77.4066 -77.4065 -49.1407 -49.1401 -49.1316 -49.1310 -49.1290 -49.1284
   -18.2965 -17.6786 -17.6375 -17.5170 -17.3891 -17.3709 -10.0699  -9.5471
    -9.1891  -9.1005  -8.9757  -8.6150  -8.5480  -8.3345  -8.2296  -7.9214
    -7.5774  -7.4910  -7.3999  -7.1303  -6.9841  -6.8698  -6.4385  -6.3302
    -6.2540  -6.0297  -6.0143  -5.9591  -5.7701  -5.5721  -4.4326  -4.3516
    -4.3306  -4.1657

     occupation numbers 
     1.0000   1.0000   1.0000   1.0000   1.0000   1.0000   1.0000   1.0000
     1.0000   1.0000   1.0000   1.0000   1.0000   1.0000   1.0000   1.0000
     1.0000   1.0000   1.0000   1.0000   1.0000   1.0000   1.0000   1.0000
     1.0000   1.0000   1.0000   1.0000   1.0000   1.0000   1.0000   1.0000
     1.0000   1.0000   1.0000   1.0000   1.0000   1.0000   0.0000   0.0000
     0.0000   0.0000

          k = 0.0556 0.4170 0.0000 ( 52576 PWs)   bands (ev):

   -77.4066 -77.4065 -49.1407 -49.1402 -49.1316 -49.1308 -49.1291 -49.1283
   -18.2317 -17.7530 -17.6029 -17.5303 -17.4131 -17.3782 -10.0665  -9.5072
    -9.2136  -9.0697  -8.8939  -8.6262  -8.5691  -8.3093  -8.1489  -7.9558
    -7.6773  -7.4434  -7.4147  -7.1523  -6.9602  -6.8639  -6.4591  -6.3570
    -6.2584  -6.0339  -5.9997  -5.9486  -5.7891  -5.5792  -4.4195  -4.3556
    -4.2923  -4.2170

     occupation numbers 
     1.0000   1.0000   1.0000   1.0000   1.0000   1.0000   1.0000   1.0000
     1.0000   1.0000   1.0000   1.0000   1.0000   1.0000   1.0000   1.0000
     1.0000   1.0000   1.0000   1.0000   1.0000   1.0000   1.0000   1.0000
     1.0000   1.0000   1.0000   1.0000   1.0000   1.0000   1.0000   1.0000
     1.0000   1.0000   1.0000   1.0000   1.0000   1.0000   0.0000   0.0000
     0.0000   0.0000

          k = 0.0556 0.4811 0.0000 ( 52547 PWs)   bands (ev):

   -77.4066 -77.4065 -49.1406 -49.1402 -49.1316 -49.1307 -49.1292 -49.1283
   -18.1664 -17.8254 -17.5677 -17.5398 -17.4409 -17.3837 -10.0673  -9.4642
    -9.2311  -9.0280  -8.7955  -8.7012  -8.5638  -8.2815  -8.0976  -7.9748
    -7.8079  -7.5189  -7.3972  -7.0794  -6.9017  -6.8325  -6.4880  -6.4072
    -6.2718  -6.0417  -5.9952  -5.9145  -5.8030  -5.5894  -4.4005  -4.3580
    -4.2812  -4.2313

     occupation numbers 
     1.0000   1.0000   1.0000   1.0000   1.0000   1.0000   1.0000   1.0000
     1.0000   1.0000   1.0000   1.0000   1.0000   1.0000   1.0000   1.0000
     1.0000   1.0000   1.0000   1.0000   1.0000   1.0000   1.0000   1.0000
     1.0000   1.0000   1.0000   1.0000   1.0000   1.0000   1.0000   1.0000
     1.0000   1.0000   1.0000   1.0000   1.0000   1.0000   0.0000   0.0000
     0.0000   0.0000

          k = 0.0556 0.5453 0.0000 ( 52563 PWs)   bands (ev):

   -77.4066 -77.4065 -49.1406 -49.1403 -49.1316 -49.1306 -49.1293 -49.1283
   -18.1163 -17.8792 -17.5447 -17.5385 -17.4664 -17.3866 -10.0688  -9.4358
    -9.2402  -8.9912  -8.7570  -8.7053  -8.5831  -8.2537  -8.1481  -7.9291
    -7.8697  -7.6013  -7.3836  -7.0279  -6.8442  -6.8055  -6.5140  -6.4515
    -6.2797  -6.0510  -5.9937  -5.8855  -5.8105  -5.5981  -4.3786  -4.3591
    -4.3162  -4.2043

     occupation numbers 
     1.0000   1.0000   1.0000   1.0000   1.0000   1.0000   1.0000   1.0000
     1.0000   1.0000   1.0000   1.0000   1.0000   1.0000   1.0000   1.0000
     1.0000   1.0000   1.0000   1.0000   1.0000   1.0000   1.0000   1.0000
     1.0000   1.0000   1.0000   1.0000   1.0000   1.0000   1.0000   1.0000
     1.0000   1.0000   1.0000   1.0000   1.0000   1.0000   0.0000   0.0000
     0.0000   0.0000

          k = 0.1111 0.1925 0.0000 ( 52627 PWs)   bands (ev):

   -77.4067 -77.4065 -49.1408 -49.1400 -49.1315 -49.1312 -49.1287 -49.1285
   -18.4102 -17.6994 -17.5378 -17.4845 -17.3570 -17.3530 -10.0878  -9.5893
    -9.1230  -9.1197  -9.0504  -8.8161  -8.4992  -8.3814  -8.2630  -7.8879
    -7.8306  -7.6624  -7.3370  -6.9390  -6.8637  -6.5901  -6.4791  -6.4126
    -6.2269  -6.0442  -6.0125  -5.9663  -5.7123  -5.5755  -4.4442  -4.3990
    -4.2572  -4.0592

     occupation numbers 
     1.0000   1.0000   1.0000   1.0000   1.0000   1.0000   1.0000   1.0000
     1.0000   1.0000   1.0000   1.0000   1.0000   1.0000   1.0000   1.0000
     1.0000   1.0000   1.0000   1.0000   1.0000   1.0000   1.0000   1.0000
     1.0000   1.0000   1.0000   1.0000   1.0000   1.0000   1.0000   1.0000
     1.0000   1.0000   1.0000   1.0000   1.0000   1.0000   0.0000   0.0000
     0.0000   0.0000

          k = 0.1111 0.2566 0.0000 ( 52596 PWs)   bands (ev):

   -77.4066 -77.4065 -49.1408 -49.1401 -49.1315 -49.1311 -49.1288 -49.1284
   -18.3668 -17.6756 -17.5879 -17.5056 -17.3674 -17.3588 -10.0711  -9.5858
    -9.1447  -9.1351  -9.0376  -8.7162  -8.4560  -8.4199  -8.2469  -7.8878
    -7.7020  -7.5924  -7.3667  -7.0085  -6.9073  -6.7314  -6.5126  -6.3605
    -6.2267  -6.0308  -6.0257  -5.9460  -5.7384  -5.5688  -4.4497  -4.3751
    -4.3178  -4.0842

     occupation numbers 
     1.0000   1.0000   1.0000   1.0000   1.0000   1.0000   1.0000   1.0000
     1.0000   1.0000   1.0000   1.0000   1.0000   1.0000   1.0000   1.0000
     1.0000   1.0000   1.0000   1.0000   1.0000   1.0000   1.0000   1.0000
     1.0000   1.0000   1.0000   1.0000   1.0000   1.0000   1.0000   1.0000
     1.0000   1.0000   1.0000   1.0000   1.0000   1.0000   0.0000   0.0000
     0.0000   0.0000

          k = 0.1111 0.3208 0.0000 ( 52580 PWs)   bands (ev):

   -77.4066 -77.4065 -49.1407 -49.1401 -49.1316 -49.1310 -49.1290 -49.1284
   -18.3134 -17.6494 -17.6467 -17.5256 -17.3822 -17.3667 -10.0511  -9.5739
    -9.1683  -9.1306  -9.0003  -8.6302  -8.5262  -8.3723  -8.1962  -7.9128
    -7.6043  -7.5243  -7.4190  -7.0514  -6.9550  -6.8372  -6.5293  -6.3352
    -6.2288  -6.0441  -6.0063  -5.9330  -5.7627  -5.5695  -4.4499  -4.3537
    -4.3400  -4.1191

     occupation numbers 
     1.0000   1.0000   1.0000   1.0000   1.0000   1.0000   1.0000   1.0000
     1.0000   1.0000   1.0000   1.0000   1.0000   1.0000   1.0000   1.0000
     1.0000   1.0000   1.0000   1.0000   1.0000   1.0000   1.0000   1.0000
     1.0000   1.0000   1.0000   1.0000   1.0000   1.0000   1.0000   1.0000
     1.0000   1.0000   1.0000   1.0000   1.0000   1.0000   0.0000   0.0000
     0.0000   0.0000

          k = 0.1111 0.3849 0.0000 ( 52588 PWs)   bands (ev):

   -77.4066 -77.4065 -49.1407 -49.1402 -49.1316 -49.1308 -49.1291 -49.1283
   -18.2519 -17.7189 -17.6140 -17.5427 -17.4021 -17.3748 -10.0346  -9.5461
    -9.1902  -9.1089  -8.9356  -8.6091  -8.5759  -8.3427  -8.1096  -7.9454
    -7.6949  -7.4674  -7.3682  -7.0970  -6.9821  -6.8546  -6.5397  -6.3586
    -6.2342  -6.0442  -5.9814  -5.9263  -5.7836  -5.5767  -4.4353  -4.3624
    -4.3064  -4.1603

     occupation numbers 
     1.0000   1.0000   1.0000   1.0000   1.0000   1.0000   1.0000   1.0000
     1.0000   1.0000   1.0000   1.0000   1.0000   1.0000   1.0000   1.0000
     1.0000   1.0000   1.0000   1.0000   1.0000   1.0000   1.0000   1.0000
     1.0000   1.0000   1.0000   1.0000   1.0000   1.0000   1.0000   1.0000
     1.0000   1.0000   1.0000   1.0000   1.0000   1.0000   0.0000   0.0000
     0.0000   0.0000

          k = 0.1111 0.4491 0.0000 ( 52556 PWs)   bands (ev):

   -77.4066 -77.4065 -49.1406 -49.1402 -49.1316 -49.1307 -49.1292 -49.1283
   -18.1861 -17.7915 -17.5794 -17.5556 -17.4268 -17.3816 -10.0255  -9.5047
    -9.2080  -9.0728  -8.8483  -8.6924  -8.5603  -8.3176  -8.0821  -7.9345
    -7.8231  -7.4294  -7.3732  -7.1108  -6.9341  -6.8276  -6.5540  -6.4158
    -6.2470  -6.0394  -5.9646  -5.9064  -5.7998  -5.5880  -4.4081  -4.3667
    -4.2739  -4.1948

     occupation numbers 
     1.0000   1.0000   1.0000   1.0000   1.0000   1.0000   1.0000   1.0000
     1.0000   1.0000   1.0000   1.0000   1.0000   1.0000   1.0000   1.0000
     1.0000   1.0000   1.0000   1.0000   1.0000   1.0000   1.0000   1.0000
     1.0000   1.0000   1.0000   1.0000   1.0000   1.0000   1.0000   1.0000
     1.0000   1.0000   1.0000   1.0000   1.0000   1.0000   0.0000   0.0000
     0.0000   0.0000

          k = 0.1111 0.5132 0.0000 ( 52557 PWs)   bands (ev):

   -77.4066 -77.4065 -49.1406 -49.1403 -49.1316 -49.1306 -49.1293 -49.1283
   -18.1251 -17.8570 -17.5637 -17.5464 -17.4537 -17.3860 -10.0223  -9.4655
    -9.2196  -9.0304  -8.7751  -8.7412  -8.5733  -8.2956  -8.1771  -7.8877
    -7.8402  -7.4757  -7.3938  -7.0776  -6.8581  -6.7950  -6.5778  -6.4729
    -6.2600  -6.0401  -5.9637  -5.8724  -5.8105  -5.6003  -4.3754  -4.3685
    -4.2844  -4.1910

     occupation numbers 
     1.0000   1.0000   1.0000   1.0000   1.0000   1.0000   1.0000   1.0000
     1.0000   1.0000   1.0000   1.0000   1.0000   1.0000   1.0000   1.0000
     1.0000   1.0000   1.0000   1.0000   1.0000   1.0000   1.0000   1.0000
     1.0000   1.0000   1.0000   1.0000   1.0000   1.0000   1.0000   1.0000
     1.0000   1.0000   1.0000   1.0000   1.0000   1.0000   0.0000   0.0000
     0.0000   0.0000

          k = 0.1111 0.5774 0.0000 ( 52566 PWs)   bands (ev):

   -77.4066 -77.4065 -49.1406 -49.1403 -49.1317 -49.1306 -49.1294 -49.1283
   -18.0952 -17.8885 -17.5665 -17.5281 -17.4699 -17.3876 -10.0218  -9.4491
    -9.2236  -9.0071  -8.8040  -8.6861  -8.5946  -8.2852  -8.2355  -7.9044
    -7.7826  -7.5322  -7.3878  -7.0608  -6.8135  -6.7865  -6.5941  -6.4967
    -6.2652  -6.0419  -5.9643  -5.8565  -5.8143  -5.6062  -4.3691  -4.3522
    -4.3076  -4.1801

     occupation numbers 
     1.0000   1.0000   1.0000   1.0000   1.0000   1.0000   1.0000   1.0000
     1.0000   1.0000   1.0000   1.0000   1.0000   1.0000   1.0000   1.0000
     1.0000   1.0000   1.0000   1.0000   1.0000   1.0000   1.0000   1.0000
     1.0000   1.0000   1.0000   1.0000   1.0000   1.0000   1.0000   1.0000
     1.0000   1.0000   1.0000   1.0000   1.0000   1.0000   0.0000   0.0000
     0.0000   0.0000

          k = 0.1667 0.2887 0.0000 ( 52609 PWs)   bands (ev):

   -77.4066 -77.4065 -49.1408 -49.1401 -49.1316 -49.1310 -49.1290 -49.1284
   -18.3191 -17.6498 -17.6370 -17.5313 -17.3798 -17.3649 -10.0414  -9.5862
    -9.1532  -9.1490  -9.0097  -8.6350  -8.5172  -8.3862  -8.1815  -7.9108
    -7.6150  -7.5386  -7.4295  -7.0402  -6.9229  -6.7969  -6.5913  -6.3392
    -6.2190  -6.0507  -6.0003  -5.9234  -5.7597  -5.5683  -4.4583  -4.3510
    -4.3463  -4.0994

     occupation numbers 
     1.0000   1.0000   1.0000   1.0000   1.0000   1.0000   1.0000   1.0000
     1.0000   1.0000   1.0000   1.0000   1.0000   1.0000   1.0000   1.0000
     1.0000   1.0000   1.0000   1.0000   1.0000   1.0000   1.0000   1.0000
     1.0000   1.0000   1.0000   1.0000   1.0000   1.0000   1.0000   1.0000
     1.0000   1.0000   1.0000   1.0000   1.0000   1.0000   0.0000   0.0000
     0.0000   0.0000

          k = 0.1667 0.3528 0.0000 ( 52573 PWs)   bands (ev):

   -77.4066 -77.4065 -49.1407 -49.1402 -49.1316 -49.1308 -49.1291 -49.1283
   -18.2622 -17.6961 -17.6197 -17.5552 -17.3957 -17.3730 -10.0061  -9.5782
    -9.1657  -9.1417  -8.9608  -8.6007  -8.5803  -8.3581  -8.0719  -7.9487
    -7.7073  -7.4911  -7.3730  -7.0296  -6.9523  -6.8547  -6.6228  -6.3639
    -6.2207  -6.0521  -5.9673  -5.9082  -5.7804  -5.5749  -4.4489  -4.3652
    -4.3127  -4.1218

     occupation numbers 
     1.0000   1.0000   1.0000   1.0000   1.0000   1.0000   1.0000   1.0000
     1.0000   1.0000   1.0000   1.0000   1.0000   1.0000   1.0000   1.0000
     1.0000   1.0000   1.0000   1.0000   1.0000   1.0000   1.0000   1.0000
     1.0000   1.0000   1.0000   1.0000   1.0000   1.0000   1.0000   1.0000
     1.0000   1.0000   1.0000   1.0000   1.0000   1.0000   0.0000   0.0000
     0.0000   0.0000

          k = 0.1667 0.4170 0.0000 ( 52563 PWs)   bands (ev):

   -77.4066 -77.4065 -49.1406 -49.1402 -49.1316 -49.1307 -49.1293 -49.1283
   -18.1988 -17.7625 -17.5869 -17.5743 -17.4159 -17.3810  -9.9753  -9.5534
    -9.1796  -9.1166  -8.8893  -8.6897  -8.5596  -8.3343  -8.0532  -7.9183
    -7.8336  -7.4501  -7.3070  -7.0562  -6.9580  -6.8465  -6.6277  -6.4282
    -6.2297  -6.0419  -5.9330  -5.8951  -5.7971  -5.5875  -4.4187  -4.3715
    -4.2791  -4.1464

     occupation numbers 
     1.0000   1.0000   1.0000   1.0000   1.0000   1.0000   1.0000   1.0000
     1.0000   1.0000   1.0000   1.0000   1.0000   1.0000   1.0000   1.0000
     1.0000   1.0000   1.0000   1.0000   1.0000   1.0000   1.0000   1.0000
     1.0000   1.0000   1.0000   1.0000   1.0000   1.0000   1.0000   1.0000
     1.0000   1.0000   1.0000   1.0000   1.0000   1.0000   0.0000   0.0000
     0.0000   0.0000

          k = 0.1667 0.4811 0.0000 ( 52543 PWs)   bands (ev):

   -77.4066 -77.4065 -49.1406 -49.1403 -49.1317 -49.1306 -49.1294 -49.1283
   -18.1340 -17.8301 -17.5876 -17.5536 -17.4400 -17.3872  -9.9562  -9.5153
    -9.1907  -9.0797  -8.8097  -8.7664  -8.5665  -8.3153  -8.1874  -7.8952
    -7.7831  -7.4202  -7.3241  -7.1098  -6.8782  -6.8151  -6.6361  -6.4986
    -6.2426  -6.0345  -5.9244  -5.8614  -5.8079  -5.6032  -4.3806  -4.3725
    -4.2649  -4.1571

     occupation numbers 
     1.0000   1.0000   1.0000   1.0000   1.0000   1.0000   1.0000   1.0000
     1.0000   1.0000   1.0000   1.0000   1.0000   1.0000   1.0000   1.0000
     1.0000   1.0000   1.0000   1.0000   1.0000   1.0000   1.0000   1.0000
     1.0000   1.0000   1.0000   1.0000   1.0000   1.0000   1.0000   1.0000
     1.0000   1.0000   1.0000   1.0000   1.0000   1.0000   0.0000   0.0000
     0.0000   0.0000

          k = 0.1667 0.5453 0.0000 ( 52537 PWs)   bands (ev):

   -77.4066 -77.4065 -49.1406 -49.1403 -49.1317 -49.1305 -49.1295 -49.1283
   -18.0826 -17.8832 -17.5943 -17.5257 -17.4632 -17.3905  -9.9482  -9.4848
    -9.1969  -9.0433  -8.8488  -8.7017  -8.5935  -8.3325  -8.2702  -7.9176
    -7.6682  -7.4370  -7.3692  -7.1155  -6.8161  -6.7793  -6.6664  -6.5380
    -6.2523  -6.0325  -5.9264  -5.8344  -5.8103  -5.6160  -4.3776  -4.3382
    -4.2832  -4.1489

     occupation numbers 
     1.0000   1.0000   1.0000   1.0000   1.0000   1.0000   1.0000   1.0000
     1.0000   1.0000   1.0000   1.0000   1.0000   1.0000   1.0000   1.0000
     1.0000   1.0000   1.0000   1.0000   1.0000   1.0000   1.0000   1.0000
     1.0000   1.0000   1.0000   1.0000   1.0000   1.0000   1.0000   1.0000
     1.0000   1.0000   1.0000   1.0000   1.0000   1.0000   0.0000   0.0000
     0.0000   0.0000

          k = 0.2222 0.3849 0.0000 ( 52542 PWs)   bands (ev):

   -77.4066 -77.4065 -49.1406 -49.1402 -49.1316 -49.1307 -49.1293 -49.1283
   -18.2031 -17.7502 -17.5895 -17.5832 -17.4115 -17.3812  -9.9503  -9.5783
    -9.1544  -9.1462  -8.9053  -8.6893  -8.5596  -8.3383  -8.0393  -7.9156
    -7.8363  -7.4601  -7.3012  -6.9739  -6.9550  -6.9048  -6.6584  -6.4337
    -6.2239  -6.0433  -5.9189  -5.8916  -5.7960  -5.5873  -4.4238  -4.3728
    -4.2813  -4.1263

     occupation numbers 
     1.0000   1.0000   1.0000   1.0000   1.0000   1.0000   1.0000   1.0000
     1.0000   1.0000   1.0000   1.0000   1.0000   1.0000   1.0000   1.0000
     1.0000   1.0000   1.0000   1.0000   1.0000   1.0000   1.0000   1.0000
     1.0000   1.0000   1.0000   1.0000   1.0000   1.0000   1.0000   1.0000
     1.0000   1.0000   1.0000   1.0000   1.0000   1.0000   0.0000   0.0000
     0.0000   0.0000

          k = 0.2222 0.4491 0.0000 ( 52530 PWs)   bands (ev):

   -77.4066 -77.4065 -49.1406 -49.1403 -49.1317 -49.1305 -49.1294 -49.1283
   -18.1393 -17.8106 -17.6053 -17.5576 -17.4306 -17.3895  -9.8979  -9.5654
    -9.1613  -9.1196  -8.8389  -8.7757  -8.5630  -8.3172  -8.1937  -7.8954
    -7.7543  -7.4251  -7.2713  -7.0439  -6.9089  -6.8880  -6.6511  -6.5174
    -6.2330  -6.0326  -5.8902  -5.8659  -5.8023  -5.6055  -4.3870  -4.3729
    -4.2600  -4.1261

     occupation numbers 
     1.0000   1.0000   1.0000   1.0000   1.0000   1.0000   1.0000   1.0000
     1.0000   1.0000   1.0000   1.0000   1.0000   1.0000   1.0000   1.0000
     1.0000   1.0000   1.0000   1.0000   1.0000   1.0000   1.0000   1.0000
     1.0000   1.0000   1.0000   1.0000   1.0000   1.0000   1.0000   1.0000
     1.0000   1.0000   1.0000   1.0000   1.0000   1.0000   0.0000   0.0000
     0.0000   0.0000

          k = 0.2222 0.5132 0.0000 ( 52530 PWs)   bands (ev):

   -77.4066 -77.4065 -49.1405 -49.1403 -49.1317 -49.1304 -49.1296 -49.1282
   -18.0778 -17.8705 -17.6189 -17.5272 -17.4524 -17.3953  -9.8640  -9.5410
    -9.1685  -9.0838  -8.8788  -8.7336  -8.5828  -8.3516  -8.2911  -7.9203
    -7.6052  -7.3979  -7.2837  -7.1405  -6.8907  -6.8056  -6.6602  -6.5748
    -6.2430  -6.0264  -5.8913  -5.8388  -5.7888  -5.6257  -4.3837  -4.3358
    -4.2624  -4.1157

     occupation numbers 
     1.0000   1.0000   1.0000   1.0000   1.0000   1.0000   1.0000   1.0000
     1.0000   1.0000   1.0000   1.0000   1.0000   1.0000   1.0000   1.0000
     1.0000   1.0000   1.0000   1.0000   1.0000   1.0000   1.0000   1.0000
     1.0000   1.0000   1.0000   1.0000   1.0000   1.0000   1.0000   1.0000
     1.0000   1.0000   1.0000   1.0000   1.0000   1.0000   0.0000   0.0000
     0.0000   0.0000

          k = 0.2222 0.5774 0.0000 ( 52506 PWs)   bands (ev):

   -77.4066 -77.4065 -49.1405 -49.1403 -49.1317 -49.1303 -49.1296 -49.1282
   -18.0447 -17.9031 -17.6235 -17.5096 -17.4670 -17.3973  -9.8531  -9.5272
    -9.1714  -9.0610  -8.9201  -8.6674  -8.6136  -8.4162  -8.2878  -7.9280
    -7.5165  -7.4115  -7.2984  -7.1782  -6.8836  -6.7542  -6.6942  -6.5849
    -6.2473  -6.0246  -5.8928  -5.8344  -5.7745  -5.6362  -4.3847  -4.3090
    -4.2767  -4.1084

     occupation numbers 
     1.0000   1.0000   1.0000   1.0000   1.0000   1.0000   1.0000   1.0000
     1.0000   1.0000   1.0000   1.0000   1.0000   1.0000   1.0000   1.0000
     1.0000   1.0000   1.0000   1.0000   1.0000   1.0000   1.0000   1.0000
     1.0000   1.0000   1.0000   1.0000   1.0000   1.0000   1.0000   1.0000
     1.0000   1.0000   1.0000   1.0000   1.0000   1.0000   0.0000   0.0000
     0.0000   0.0000

          k = 0.2778 0.4811 0.0000 ( 52508 PWs)   bands (ev):

   -77.4066 -77.4065 -49.1405 -49.1403 -49.1317 -49.1303 -49.1296 -49.1282
   -18.0768 -17.8637 -17.6292 -17.5281 -17.4471 -17.3980  -9.8170  -9.5782
    -9.1538  -9.1028  -8.8896  -8.7480  -8.5776  -8.3539  -8.3001  -7.9203
    -7.5852  -7.3832  -7.2724  -7.0657  -6.9940  -6.8128  -6.6370  -6.5995
    -6.2395  -6.0243  -5.8721  -5.8480  -5.7783  -5.6301  -4.3860  -4.3357
    -4.2558  -4.1007

     occupation numbers 
     1.0000   1.0000   1.0000   1.0000   1.0000   1.0000   1.0000   1.0000
     1.0000   1.0000   1.0000   1.0000   1.0000   1.0000   1.0000   1.0000
     1.0000   1.0000   1.0000   1.0000   1.0000   1.0000   1.0000   1.0000
     1.0000   1.0000   1.0000   1.0000   1.0000   1.0000   1.0000   1.0000
     1.0000   1.0000   1.0000   1.0000   1.0000   1.0000   0.0000   0.0000
     0.0000   0.0000

          k = 0.2778 0.5453 0.0000 ( 52522 PWs)   bands (ev):

   -77.4066 -77.4065 -49.1405 -49.1404 -49.1317 -49.1302 -49.1298 -49.1282
   -18.0204 -17.9150 -17.6419 -17.5023 -17.4653 -17.4034  -9.7601  -9.5877
    -9.1583  -9.0691  -8.9635  -8.6680  -8.6005  -8.4727  -8.2904  -7.9317
    -7.4435  -7.3576  -7.2718  -7.1684  -7.0082  -6.7563  -6.6617  -6.6205
    -6.2443  -6.0199  -5.8685  -5.8442  -5.7412  -5.6561  -4.3887  -4.3003
    -4.2660  -4.0813

     occupation numbers 
     1.0000   1.0000   1.0000   1.0000   1.0000   1.0000   1.0000   1.0000
     1.0000   1.0000   1.0000   1.0000   1.0000   1.0000   1.0000   1.0000
     1.0000   1.0000   1.0000   1.0000   1.0000   1.0000   1.0000   1.0000
     1.0000   1.0000   1.0000   1.0000   1.0000   1.0000   1.0000   1.0000
     1.0000   1.0000   1.0000   1.0000   1.0000   1.0000   0.0000   0.0000
     0.0000   0.0000

          k = 0.3333 0.5774 0.0000 ( 52536 PWs)   bands (ev):

   -77.4066 -77.4066 -49.1404 -49.1404 -49.1317 -49.1300 -49.1300 -49.1282
   -17.9652 -17.9652 -17.6504 -17.4814 -17.4814 -17.4070  -9.6622  -9.6622
    -9.1597  -9.0276  -9.0276  -8.6094  -8.6094  -8.5502  -8.2880  -7.9354
    -7.3375  -7.3375  -7.3097  -7.1215  -7.1215  -6.7427  -6.6464  -6.6464
    -6.2448  -6.0175  -5.8540  -5.8540  -5.6949  -5.6949  -4.3906  -4.2774
    -4.2774  -4.0675

     occupation numbers 
     1.0000   1.0000   1.0000   1.0000   1.0000   1.0000   1.0000   1.0000
     1.0000   1.0000   1.0000   1.0000   1.0000   1.0000   1.0000   1.0000
     1.0000   1.0000   1.0000   1.0000   1.0000   1.0000   1.0000   1.0000
     1.0000   1.0000   1.0000   1.0000   1.0000   1.0000   1.0000   1.0000
     1.0000   1.0000   1.0000   1.0000   1.0000   1.0000   0.0000   0.0000
     0.0000   0.0000

 ------ SPIN DOWN ----------


          k = 0.0000 0.0000 0.0000 ( 52593 PWs)   bands (ev):

   -74.4676 -74.4673 -46.2203 -46.2189 -46.1904 -46.1904 -46.1866 -46.1866
   -18.4713 -17.7632 -17.4557 -17.4557 -17.3621 -17.3621  -9.8467  -9.3827
    -8.8941  -8.8941  -8.7450  -8.7450  -8.6105  -8.0358  -7.6350  -7.6350
    -7.3458  -7.3458  -7.3457  -6.6625  -6.3116  -6.3116  -5.7745  -5.7745
    -3.7958  -3.7865  -3.7865  -3.7093  -3.4517  -3.4517  -2.9129  -2.9129
    -2.6412  -2.6412

     occupation numbers 
     1.0000   1.0000   1.0000   1.0000   1.0000   1.0000   1.0000   1.0000
     1.0000   1.0000   1.0000   1.0000   1.0000   1.0000   1.0000   1.0000
     1.0000   1.0000   1.0000   1.0000   1.0000   1.0000   1.0000   1.0000
     1.0000   1.0000   1.0000   1.0000   1.0000   1.0000   1.0000   1.0000
     0.0000   0.0000   0.0000   0.0000   0.0000   0.0000   0.0000   0.0000
     0.0000   0.0000

          k = 0.0000 0.0642 0.0000 ( 52624 PWs)   bands (ev):

   -74.4676 -74.4673 -46.2203 -46.2190 -46.1904 -46.1904 -46.1866 -46.1866
   -18.4648 -17.7595 -17.4650 -17.4599 -17.3626 -17.3623  -9.8490  -9.3814
    -8.9005  -8.8677  -8.8092  -8.7595  -8.5281  -7.9922  -7.6524  -7.6406
    -7.3500  -7.3399  -7.3286  -6.6649  -6.3198  -6.3103  -5.8341  -5.7896
    -3.8224  -3.7769  -3.7465  -3.7028  -3.4566  -3.4543  -2.9140  -2.9115
    -2.6629  -2.6451

     occupation numbers 
     1.0000   1.0000   1.0000   1.0000   1.0000   1.0000   1.0000   1.0000
     1.0000   1.0000   1.0000   1.0000   1.0000   1.0000   1.0000   1.0000
     1.0000   1.0000   1.0000   1.0000   1.0000   1.0000   1.0000   1.0000
     1.0000   1.0000   1.0000   1.0000   1.0000   1.0000   1.0000   1.0000
     0.0000   0.0000   0.0000   0.0000   0.0000   0.0000   0.0000   0.0000
     0.0000   0.0000

          k = 0.0000 0.1283 0.0000 ( 52622 PWs)   bands (ev):

   -74.4676 -74.4673 -46.2203 -46.2190 -46.1904 -46.1903 -46.1867 -46.1866
   -18.4456 -17.7483 -17.4915 -17.4710 -17.3646 -17.3637  -9.8535  -9.3778
    -8.9170  -8.8948  -8.8015  -8.7806  -8.3894  -7.8763  -7.7021  -7.6570
    -7.3620  -7.3259  -7.2808  -6.6699  -6.3445  -6.3075  -5.9970  -5.8317
    -3.8416  -3.7500  -3.7185  -3.6650  -3.4688  -3.4622  -2.9174  -2.9094
    -2.7147  -2.6562

     occupation numbers 
     1.0000   1.0000   1.0000   1.0000   1.0000   1.0000   1.0000   1.0000
     1.0000   1.0000   1.0000   1.0000   1.0000   1.0000   1.0000   1.0000
     1.0000   1.0000   1.0000   1.0000   1.0000   1.0000   1.0000   1.0000
     1.0000   1.0000   1.0000   1.0000   1.0000   1.0000   1.0000   1.0000
     0.0000   0.0000   0.0000   0.0000   0.0000   0.0000   0.0000   0.0000
     0.0000   0.0000

          k = 0.0000 0.1925 0.0000 ( 52592 PWs)   bands (ev):

   -74.4676 -74.4673 -46.2202 -46.2190 -46.1905 -46.1902 -46.1868 -46.1866
   -18.4141 -17.7301 -17.5330 -17.4864 -17.3690 -17.3687  -9.8560  -9.3722
    -8.9692  -8.9311  -8.8086  -8.6829  -8.2363  -7.7794  -7.7173  -7.6803
    -7.3803  -7.3111  -7.2119  -6.6741  -6.3954  -6.3045  -6.2188  -5.8923
    -3.8558  -3.7206  -3.7112  -3.6042  -3.4797  -3.4752  -2.9232  -2.9122
    -2.7672  -2.6734

     occupation numbers 
     1.0000   1.0000   1.0000   1.0000   1.0000   1.0000   1.0000   1.0000
     1.0000   1.0000   1.0000   1.0000   1.0000   1.0000   1.0000   1.0000
     1.0000   1.0000   1.0000   1.0000   1.0000   1.0000   1.0000   1.0000
     1.0000   1.0000   1.0000   1.0000   1.0000   1.0000   1.0000   1.0000
     0.0000   0.0000   0.0000   0.0000   0.0000   0.0000   0.0000   0.0000
     0.0000   0.0000

          k = 0.0000 0.2566 0.0000 ( 52620 PWs)   bands (ev):

   -74.4676 -74.4673 -46.2202 -46.2191 -46.1905 -46.1901 -46.1870 -46.1865
   -18.3712 -17.7057 -17.5870 -17.5034 -17.3788 -17.3753  -9.8556  -9.3614
    -9.0280  -8.9351  -8.7987  -8.5583  -8.0785  -7.8800  -7.7189  -7.5240
    -7.4027  -7.3012  -7.1330  -6.6801  -6.5698  -6.3649  -6.2999  -5.9580
    -3.8696  -3.7444  -3.6702  -3.5537  -3.4916  -3.4761  -2.9319  -2.9220
    -2.7958  -2.6938

     occupation numbers 
     1.0000   1.0000   1.0000   1.0000   1.0000   1.0000   1.0000   1.0000
     1.0000   1.0000   1.0000   1.0000   1.0000   1.0000   1.0000   1.0000
     1.0000   1.0000   1.0000   1.0000   1.0000   1.0000   1.0000   1.0000
     1.0000   1.0000   1.0000   1.0000   1.0000   1.0000   1.0000   1.0000
     0.0000   0.0000   0.0000   0.0000   0.0000   0.0000   0.0000   0.0000
     0.0000   0.0000

          k = 0.0000 0.3208 0.0000 ( 52586 PWs)   bands (ev):

   -74.4675 -74.4673 -46.2201 -46.2192 -46.1906 -46.1899 -46.1871 -46.1865
   -18.3183 -17.6760 -17.6512 -17.5199 -17.3950 -17.3827  -9.8547  -9.3393
    -9.0764  -8.9168  -8.7574  -8.4358  -8.0072  -7.9148  -7.7519  -7.4294
    -7.3252  -7.2986  -7.0541  -6.8535  -6.6994  -6.4190  -6.2912  -6.0129
    -3.8856  -3.7892  -3.6394  -3.5258  -3.5061  -3.4508  -2.9437  -2.9241
    -2.8020  -2.7135

     occupation numbers 
     1.0000   1.0000   1.0000   1.0000   1.0000   1.0000   1.0000   1.0000
     1.0000   1.0000   1.0000   1.0000   1.0000   1.0000   1.0000   1.0000
     1.0000   1.0000   1.0000   1.0000   1.0000   1.0000   1.0000   1.0000
     1.0000   1.0000   1.0000   1.0000   1.0000   1.0000   1.0000   1.0000
     0.0000   0.0000   0.0000   0.0000   0.0000   0.0000   0.0000   0.0000
     0.0000   0.0000

          k = 0.0000 0.3849 0.0000 ( 52554 PWs)   bands (ev):

   -74.4675 -74.4674 -46.2200 -46.2192 -46.1906 -46.1897 -46.1873 -46.1864
   -18.2574 -17.7223 -17.6423 -17.5344 -17.4171 -17.3900  -9.8565  -9.3031
    -9.1153  -8.8715  -8.6881  -8.3336  -8.1404  -7.7739  -7.7663  -7.4601
    -7.3016  -7.1494  -7.1233  -6.9871  -6.7366  -6.4604  -6.2868  -6.0393
    -3.9043  -3.8464  -3.6279  -3.5127  -3.5109  -3.4194  -2.9578  -2.9075
    -2.7961  -2.7292

     occupation numbers 
     1.0000   1.0000   1.0000   1.0000   1.0000   1.0000   1.0000   1.0000
     1.0000   1.0000   1.0000   1.0000   1.0000   1.0000   1.0000   1.0000
     1.0000   1.0000   1.0000   1.0000   1.0000   1.0000   1.0000   1.0000
     1.0000   1.0000   1.0000   1.0000   1.0000   1.0000   1.0000   1.0000
     0.0000   0.0000   0.0000   0.0000   0.0000   0.0000   0.0000   0.0000
     0.0000   0.0000

          k = 0.0000 0.4491 0.0000 ( 52564 PWs)   bands (ev):

   -74.4675 -74.4674 -46.2199 -46.2193 -46.1907 -46.1896 -46.1874 -46.1864
   -18.1924 -17.7954 -17.6067 -17.5455 -17.4440 -17.3961  -9.8610  -9.2590
    -9.1441  -8.7991  -8.6022  -8.2828  -8.2593  -7.7802  -7.6300  -7.5154
    -7.3761  -7.3070  -6.9615  -6.9598  -6.7637  -6.4986  -6.3021  -6.0310
    -3.9238  -3.9026  -3.6308  -3.5134  -3.5005  -3.3952  -2.9713  -2.8827
    -2.7799  -2.7397

     occupation numbers 
     1.0000   1.0000   1.0000   1.0000   1.0000   1.0000   1.0000   1.0000
     1.0000   1.0000   1.0000   1.0000   1.0000   1.0000   1.0000   1.0000
     1.0000   1.0000   1.0000   1.0000   1.0000   1.0000   1.0000   1.0000
     1.0000   1.0000   1.0000   1.0000   1.0000   1.0000   1.0000   1.0000
     0.0000   0.0000   0.0000   0.0000   0.0000   0.0000   0.0000   0.0000
     0.0000   0.0000

          k = 0.0000 0.5132 0.0000 ( 52580 PWs)   bands (ev):

   -74.4675 -74.4674 -46.2199 -46.2194 -46.1907 -46.1895 -46.1876 -46.1864
   -18.1324 -17.8607 -17.5728 -17.5525 -17.4724 -17.4002  -9.8656  -9.2217
    -9.1619  -8.7051  -8.5259  -8.4212  -8.1969  -7.8056  -7.6316  -7.5239
    -7.4631  -7.3115  -6.9884  -6.8355  -6.7516  -6.5337  -6.3282  -6.0091
    -3.9490  -3.9345  -3.6366  -3.5135  -3.4938  -3.3810  -2.9808  -2.8667
    -2.7572  -2.7453

     occupation numbers 
     1.0000   1.0000   1.0000   1.0000   1.0000   1.0000   1.0000   1.0000
     1.0000   1.0000   1.0000   1.0000   1.0000   1.0000   1.0000   1.0000
     1.0000   1.0000   1.0000   1.0000   1.0000   1.0000   1.0000   1.0000
     1.0000   1.0000   1.0000   1.0000   1.0000   1.0000   1.0000   1.0000
     0.0000   0.0000   0.0000   0.0000   0.0000   0.0000   0.0000   0.0000
     0.0000   0.0000

          k = 0.0000-0.5774 0.0000 ( 52578 PWs)   bands (ev):

   -74.4675 -74.4674 -46.2198 -46.2194 -46.1907 -46.1894 -46.1876 -46.1863
   -18.1033 -17.8917 -17.5551 -17.5543 -17.4890 -17.4016  -9.8674  -9.2070
    -9.1679  -8.6302  -8.5114  -8.4955  -8.1546  -7.8594  -7.6660  -7.4802
    -7.4795  -7.3133  -7.0123  -6.7848  -6.7390  -6.5518  -6.3411  -5.9989
    -3.9641  -3.9408  -3.6390  -3.5137  -3.4914  -3.3764  -2.9843  -2.8621
    -2.7471  -2.7460

     occupation numbers 
     1.0000   1.0000   1.0000   1.0000   1.0000   1.0000   1.0000   1.0000
     1.0000   1.0000   1.0000   1.0000   1.0000   1.0000   1.0000   1.0000
     1.0000   1.0000   1.0000   1.0000   1.0000   1.0000   1.0000   1.0000
     1.0000   1.0000   1.0000   1.0000   1.0000   1.0000   1.0000   1.0000
     0.0000   0.0000   0.0000   0.0000   0.0000   0.0000   0.0000   0.0000
     0.0000   0.0000

          k = 0.0556 0.0962 0.0000 ( 52597 PWs)   bands (ev):

   -74.4676 -74.4673 -46.2203 -46.2190 -46.1904 -46.1903 -46.1867 -46.1866
   -18.4520 -17.7520 -17.4823 -17.4681 -17.3635 -17.3634  -9.8522  -9.3790
    -8.9131  -8.8729  -8.8166  -8.7810  -8.4283  -7.9129  -7.6864  -7.6510
    -7.3610  -7.3262  -7.2972  -6.6688  -6.3348  -6.3096  -5.9443  -5.8189
    -3.8341  -3.7706  -3.7043  -3.6884  -3.4654  -3.4592  -2.9179  -2.9081
    -2.6998  -2.6521

     occupation numbers 
     1.0000   1.0000   1.0000   1.0000   1.0000   1.0000   1.0000   1.0000
     1.0000   1.0000   1.0000   1.0000   1.0000   1.0000   1.0000   1.0000
     1.0000   1.0000   1.0000   1.0000   1.0000   1.0000   1.0000   1.0000
     1.0000   1.0000   1.0000   1.0000   1.0000   1.0000   1.0000   1.0000
     0.0000   0.0000   0.0000   0.0000   0.0000   0.0000   0.0000   0.0000
     0.0000   0.0000

          k = 0.0556 0.1604 0.0000 ( 52588 PWs)   bands (ev):

   -74.4676 -74.4673 -46.2202 -46.2190 -46.1905 -46.1903 -46.1868 -46.1866
   -18.4266 -17.7373 -17.5150 -17.4826 -17.3673 -17.3660  -9.8546  -9.3753
    -8.9426  -8.9313  -8.8040  -8.7230  -8.2908  -7.7784  -7.7478  -7.6707
    -7.3817  -7.3060  -7.2406  -6.6752  -6.3649  -6.3116  -6.1339  -5.8722
    -3.8434  -3.7624  -3.6772  -3.6375  -3.4775  -3.4689  -2.9280  -2.9031
    -2.7513  -2.6652

     occupation numbers 
     1.0000   1.0000   1.0000   1.0000   1.0000   1.0000   1.0000   1.0000
     1.0000   1.0000   1.0000   1.0000   1.0000   1.0000   1.0000   1.0000
     1.0000   1.0000   1.0000   1.0000   1.0000   1.0000   1.0000   1.0000
     1.0000   1.0000   1.0000   1.0000   1.0000   1.0000   1.0000   1.0000
     0.0000   0.0000   0.0000   0.0000   0.0000   0.0000   0.0000   0.0000
     0.0000   0.0000

          k = 0.0556 0.2245 0.0000 ( 52618 PWs)   bands (ev):

   -74.4676 -74.4673 -46.2202 -46.2191 -46.1905 -46.1901 -46.1869 -46.1865
   -18.3894 -17.7160 -17.5617 -17.5001 -17.3749 -17.3712  -9.8530  -9.3693
    -9.0009  -8.9450  -8.8074  -8.6042  -8.1391  -7.8412  -7.7001  -7.6007
    -7.4083  -7.2880  -7.1694  -6.6914  -6.4495  -6.3455  -6.2901  -5.9384
    -3.8548  -3.7578  -3.6627  -3.5801  -3.4828  -3.4806  -2.9446  -2.9005
    -2.7889  -2.6832

     occupation numbers 
     1.0000   1.0000   1.0000   1.0000   1.0000   1.0000   1.0000   1.0000
     1.0000   1.0000   1.0000   1.0000   1.0000   1.0000   1.0000   1.0000
     1.0000   1.0000   1.0000   1.0000   1.0000   1.0000   1.0000   1.0000
     1.0000   1.0000   1.0000   1.0000   1.0000   1.0000   1.0000   1.0000
     0.0000   0.0000   0.0000   0.0000   0.0000   0.0000   0.0000   0.0000
     0.0000   0.0000

          k = 0.0556 0.2887 0.0000 ( 52597 PWs)   bands (ev):

   -74.4675 -74.4673 -46.2201 -46.2191 -46.1906 -46.1900 -46.1871 -46.1865
   -18.3414 -17.6889 -17.6200 -17.5179 -17.3876 -17.3784  -9.8485  -9.3558
    -9.0499  -8.9402  -8.7818  -8.4791  -7.9885  -7.9473  -7.7315  -7.4393
    -7.4084  -7.2776  -7.0961  -6.7884  -6.6131  -6.4010  -6.2971  -6.0022
    -3.8702  -3.7777  -3.6456  -3.5457  -3.4917  -3.4659  -2.9599  -2.9004
    -2.8029  -2.7030

     occupation numbers 
     1.0000   1.0000   1.0000   1.0000   1.0000   1.0000   1.0000   1.0000
     1.0000   1.0000   1.0000   1.0000   1.0000   1.0000   1.0000   1.0000
     1.0000   1.0000   1.0000   1.0000   1.0000   1.0000   1.0000   1.0000
     1.0000   1.0000   1.0000   1.0000   1.0000   1.0000   1.0000   1.0000
     0.0000   0.0000   0.0000   0.0000   0.0000   0.0000   0.0000   0.0000
     0.0000   0.0000

          k = 0.0556 0.3528 0.0000 ( 52590 PWs)   bands (ev):

   -74.4675 -74.4674 -46.2200 -46.2192 -46.1906 -46.1898 -46.1872 -46.1864
   -18.2844 -17.6871 -17.6572 -17.5342 -17.4062 -17.3862  -9.8451  -9.3286
    -9.0907  -8.9099  -8.7263  -8.3674  -8.0853  -7.8271  -7.7563  -7.4686
    -7.2769  -7.2159  -7.0881  -6.9696  -6.6830  -6.4398  -6.2895  -6.0458
    -3.8893  -3.8223  -3.6316  -3.5408  -3.4886  -3.4358  -2.9650  -2.8966
    -2.8015  -2.7209

     occupation numbers 
     1.0000   1.0000   1.0000   1.0000   1.0000   1.0000   1.0000   1.0000
     1.0000   1.0000   1.0000   1.0000   1.0000   1.0000   1.0000   1.0000
     1.0000   1.0000   1.0000   1.0000   1.0000   1.0000   1.0000   1.0000
     1.0000   1.0000   1.0000   1.0000   1.0000   1.0000   1.0000   1.0000
     0.0000   0.0000   0.0000   0.0000   0.0000   0.0000   0.0000   0.0000
     0.0000   0.0000

          k = 0.0556 0.4170 0.0000 ( 52576 PWs)   bands (ev):

   -74.4675 -74.4674 -46.2200 -46.2193 -46.1906 -46.1896 -46.1874 -46.1864
   -18.2210 -17.7593 -17.6225 -17.5476 -17.4304 -17.3931  -9.8454  -9.2879
    -9.1230  -8.8522  -8.6472  -8.2845  -8.2258  -7.7728  -7.6777  -7.5063
    -7.3143  -7.2786  -7.0370  -6.9425  -6.7387  -6.4768  -6.2925  -6.0534
    -3.9102  -3.8768  -3.6289  -3.5433  -3.4801  -3.4077  -2.9662  -2.8831
    -2.7896  -2.7344

     occupation numbers 
     1.0000   1.0000   1.0000   1.0000   1.0000   1.0000   1.0000   1.0000
     1.0000   1.0000   1.0000   1.0000   1.0000   1.0000   1.0000   1.0000
     1.0000   1.0000   1.0000   1.0000   1.0000   1.0000   1.0000   1.0000
     1.0000   1.0000   1.0000   1.0000   1.0000   1.0000   1.0000   1.0000
     0.0000   0.0000   0.0000   0.0000   0.0000   0.0000   0.0000   0.0000
     0.0000   0.0000

          k = 0.0556 0.4811 0.0000 ( 52547 PWs)   bands (ev):

   -74.4675 -74.4674 -46.2199 -46.2194 -46.1907 -46.1895 -46.1875 -46.1864
   -18.1568 -17.8299 -17.5873 -17.5571 -17.4583 -17.3984  -9.8484  -9.2448
    -9.1454  -8.7691  -8.5611  -8.3688  -8.2262  -7.7852  -7.6093  -7.5376
    -7.4606  -7.2876  -6.9448  -6.8893  -6.7571  -6.5145  -6.3132  -6.0334
    -3.9295  -3.9250  -3.6332  -3.5438  -3.4734  -3.3886  -2.9697  -2.8679
    -2.7674  -2.7428

     occupation numbers 
     1.0000   1.0000   1.0000   1.0000   1.0000   1.0000   1.0000   1.0000
     1.0000   1.0000   1.0000   1.0000   1.0000   1.0000   1.0000   1.0000
     1.0000   1.0000   1.0000   1.0000   1.0000   1.0000   1.0000   1.0000
     1.0000   1.0000   1.0000   1.0000   1.0000   1.0000   1.0000   1.0000
     0.0000   0.0000   0.0000   0.0000   0.0000   0.0000   0.0000   0.0000
     0.0000   0.0000

[...]
     1.0000   1.0000   1.0000   1.0000   1.0000   1.0000   1.0000   1.0000
     1.0000   1.0000   1.0000   1.0000   1.0000   1.0000   1.0000   1.0000
     1.0000   1.0000   1.0000   1.0000   1.0000   1.0000   1.0000   1.0000
     1.0000   1.0000   1.0000   1.0000   1.0000   1.0000   1.0000   1.0000
     0.0000   0.0000   0.0000   0.0000   0.0000   0.0000   0.0000   0.0000
     0.0000   0.0000

          k = 0.1111 0.2566 0.0000 ( 52596 PWs)   bands (ev):

   -74.4675 -74.4673 -46.2201 -46.2191 -46.1906 -46.1900 -46.1870 -46.1865
   -18.3532 -17.6956 -17.5991 -17.5225 -17.3843 -17.3748  -9.8393  -9.3692
    -9.0232  -8.9669  -8.7964  -8.4970  -8.0139  -7.9321  -7.7118  -7.4637
    -7.4504  -7.2486  -7.1276  -6.7939  -6.4988  -6.4099  -6.2981  -6.0058
    -3.8431  -3.7984  -3.6369  -3.5643  -3.4816  -3.4755  -2.9731  -2.8792
    -2.8046  -2.6936

     occupation numbers 
     1.0000   1.0000   1.0000   1.0000   1.0000   1.0000   1.0000   1.0000
     1.0000   1.0000   1.0000   1.0000   1.0000   1.0000   1.0000   1.0000
     1.0000   1.0000   1.0000   1.0000   1.0000   1.0000   1.0000   1.0000
     1.0000   1.0000   1.0000   1.0000   1.0000   1.0000   1.0000   1.0000
     0.0000   0.0000   0.0000   0.0000   0.0000   0.0000   0.0000   0.0000
     0.0000   0.0000

          k = 0.1111 0.3208 0.0000 ( 52580 PWs)   bands (ev):

   -74.4675 -74.4673 -46.2201 -46.2192 -46.1906 -46.1898 -46.1872 -46.1864
   -18.3009 -17.6665 -17.6584 -17.5425 -17.3992 -17.3824  -9.8244  -9.3562
    -9.0569  -8.9554  -8.7559  -8.3821  -8.0562  -7.8618  -7.7305  -7.4989
    -7.2750  -7.2331  -7.1158  -6.9496  -6.5746  -6.4309  -6.2989  -6.0666
    -3.8646  -3.8173  -3.6393  -3.5568  -3.4733  -3.4524  -2.9810  -2.8685
    -2.8080  -2.7109

     occupation numbers 
     1.0000   1.0000   1.0000   1.0000   1.0000   1.0000   1.0000   1.0000
     1.0000   1.0000   1.0000   1.0000   1.0000   1.0000   1.0000   1.0000
     1.0000   1.0000   1.0000   1.0000   1.0000   1.0000   1.0000   1.0000
     1.0000   1.0000   1.0000   1.0000   1.0000   1.0000   1.0000   1.0000
     0.0000   0.0000   0.0000   0.0000   0.0000   0.0000   0.0000   0.0000
     0.0000   0.0000

          k = 0.1111 0.3849 0.0000 ( 52588 PWs)   bands (ev):

   -74.4675 -74.4674 -46.2200 -46.2193 -46.1907 -46.1897 -46.1874 -46.1864
   -18.2407 -17.7257 -17.6336 -17.5596 -17.4193 -17.3902  -9.8121  -9.3272
    -9.0867  -8.9161  -8.6892  -8.2943  -8.1942  -7.7601  -7.6928  -7.5390
    -7.2972  -7.2299  -7.0990  -6.9412  -6.6462  -6.4568  -6.2916  -6.0960
    -3.8923  -3.8522  -3.6374  -3.5683  -3.4620  -3.4237  -2.9717  -2.8599
    -2.7991  -2.7267

     occupation numbers 
     1.0000   1.0000   1.0000   1.0000   1.0000   1.0000   1.0000   1.0000
     1.0000   1.0000   1.0000   1.0000   1.0000   1.0000   1.0000   1.0000
     1.0000   1.0000   1.0000   1.0000   1.0000   1.0000   1.0000   1.0000
     1.0000   1.0000   1.0000   1.0000   1.0000   1.0000   1.0000   1.0000
     0.0000   0.0000   0.0000   0.0000   0.0000   0.0000   0.0000   0.0000
     0.0000   0.0000

          k = 0.1111 0.4491 0.0000 ( 52556 PWs)   bands (ev):

   -74.4675 -74.4674 -46.2199 -46.2193 -46.1907 -46.1895 -46.1876 -46.1863
   -18.1763 -17.7962 -17.5989 -17.5726 -17.4443 -17.3967  -9.8059  -9.2855
    -9.1102  -8.8500  -8.6046  -8.3391  -8.2408  -7.7650  -7.6268  -7.5342
    -7.4692  -7.2367  -6.9628  -6.8787  -6.7203  -6.4913  -6.2982  -6.0851
    -3.9188  -3.8941  -3.6352  -3.5807  -3.4533  -3.4012  -2.9565  -2.8552
    -2.7772  -2.7385

     occupation numbers 
     1.0000   1.0000   1.0000   1.0000   1.0000   1.0000   1.0000   1.0000
     1.0000   1.0000   1.0000   1.0000   1.0000   1.0000   1.0000   1.0000
     1.0000   1.0000   1.0000   1.0000   1.0000   1.0000   1.0000   1.0000
     1.0000   1.0000   1.0000   1.0000   1.0000   1.0000   1.0000   1.0000
     0.0000   0.0000   0.0000   0.0000   0.0000   0.0000   0.0000   0.0000
     0.0000   0.0000

          k = 0.1111 0.5132 0.0000 ( 52557 PWs)   bands (ev):

   -74.4675 -74.4674 -46.2198 -46.2194 -46.1907 -46.1893 -46.1877 -46.1863
   -18.1163 -17.8603 -17.5807 -17.5658 -17.4712 -17.4010  -9.8043  -9.2466
    -9.1252  -8.7604  -8.5310  -8.4722  -8.2043  -7.8546  -7.6655  -7.5304
    -7.4261  -7.2443  -6.9066  -6.8507  -6.7220  -6.5327  -6.3135  -6.0597
    -3.9383  -3.9277  -3.6345  -3.5888  -3.4479  -3.3878  -2.9461  -2.8541
    -2.7528  -2.7438

     occupation numbers 
     1.0000   1.0000   1.0000   1.0000   1.0000   1.0000   1.0000   1.0000
     1.0000   1.0000   1.0000   1.0000   1.0000   1.0000   1.0000   1.0000
     1.0000   1.0000   1.0000   1.0000   1.0000   1.0000   1.0000   1.0000
     1.0000   1.0000   1.0000   1.0000   1.0000   1.0000   1.0000   1.0000
     0.0000   0.0000   0.0000   0.0000   0.0000   0.0000   0.0000   0.0000
     0.0000   0.0000

          k = 0.1111 0.5774 0.0000 ( 52566 PWs)   bands (ev):

   -74.4675 -74.4674 -46.2198 -46.2194 -46.1907 -46.1893 -46.1877 -46.1863
   -18.0866 -17.8915 -17.5835 -17.5477 -17.4872 -17.4025  -9.8043  -9.2306
    -9.1303  -8.6834  -8.5848  -8.4772  -8.1780  -7.9328  -7.6647  -7.5439
    -7.3768  -7.2476  -6.9180  -6.8429  -6.6849  -6.5600  -6.3208  -6.0482
    -3.9461  -3.9398  -3.6344  -3.5916  -3.4461  -3.3834  -2.9427  -2.8542
    -2.7500  -2.7370

     occupation numbers 
     1.0000   1.0000   1.0000   1.0000   1.0000   1.0000   1.0000   1.0000
     1.0000   1.0000   1.0000   1.0000   1.0000   1.0000   1.0000   1.0000
     1.0000   1.0000   1.0000   1.0000   1.0000   1.0000   1.0000   1.0000
     1.0000   1.0000   1.0000   1.0000   1.0000   1.0000   1.0000   1.0000
     0.0000   0.0000   0.0000   0.0000   0.0000   0.0000   0.0000   0.0000
     0.0000   0.0000

          k = 0.1667 0.2887 0.0000 ( 52609 PWs)   bands (ev):

   -74.4675 -74.4673 -46.2201 -46.2192 -46.1906 -46.1898 -46.1872 -46.1864
   -18.3065 -17.6696 -17.6462 -17.5483 -17.3968 -17.3808  -9.8139  -9.3689
    -9.0331  -8.9829  -8.7677  -8.3855  -8.0472  -7.8731  -7.7171  -7.5142
    -7.2951  -7.2123  -7.1314  -6.9500  -6.5003  -6.4486  -6.3040  -6.0793
    -3.8407  -3.8307  -3.6433  -3.5603  -3.4652  -3.4626  -2.9873  -2.8551
    -2.8123  -2.7059

     occupation numbers 
     1.0000   1.0000   1.0000   1.0000   1.0000   1.0000   1.0000   1.0000
     1.0000   1.0000   1.0000   1.0000   1.0000   1.0000   1.0000   1.0000
     1.0000   1.0000   1.0000   1.0000   1.0000   1.0000   1.0000   1.0000
     1.0000   1.0000   1.0000   1.0000   1.0000   1.0000   1.0000   1.0000
     0.0000   0.0000   0.0000   0.0000   0.0000   0.0000   0.0000   0.0000
     0.0000   0.0000

          k = 0.1667 0.3528 0.0000 ( 52573 PWs)   bands (ev):

   -74.4675 -74.4674 -46.2200 -46.2192 -46.1907 -46.1897 -46.1874 -46.1864
   -18.2509 -17.7030 -17.6394 -17.5721 -17.4129 -17.3886  -9.7825  -9.3599
    -9.0446  -8.9721  -8.7159  -8.2956  -8.1807  -7.7558  -7.6812  -7.5728
    -7.2984  -7.1902  -7.1368  -6.9577  -6.5333  -6.4630  -6.2976  -6.1366
    -3.8793  -3.8341  -3.6568  -3.5728  -3.4503  -3.4381  -2.9787  -2.8336
    -2.8107  -2.7197

     occupation numbers 
     1.0000   1.0000   1.0000   1.0000   1.0000   1.0000   1.0000   1.0000
     1.0000   1.0000   1.0000   1.0000   1.0000   1.0000   1.0000   1.0000
     1.0000   1.0000   1.0000   1.0000   1.0000   1.0000   1.0000   1.0000
     1.0000   1.0000   1.0000   1.0000   1.0000   1.0000   1.0000   1.0000
     0.0000   0.0000   0.0000   0.0000   0.0000   0.0000   0.0000   0.0000
     0.0000   0.0000

          k = 0.1667 0.4170 0.0000 ( 52563 PWs)   bands (ev):

   -74.4675 -74.4674 -46.2199 -46.2193 -46.1907 -46.1895 -46.1876 -46.1863
   -18.1889 -17.7672 -17.6064 -17.5912 -17.4334 -17.3965  -9.7549  -9.3344
    -9.0619  -8.9279  -8.6422  -8.3256  -8.2423  -7.7372  -7.6563  -7.5366
    -7.4774  -7.1838  -7.0140  -6.8823  -6.6102  -6.4807  -6.2871  -6.1523
    -3.9125  -3.8567  -3.6622  -3.5918  -3.4397  -3.4148  -2.9529  -2.8309
    -2.7866  -2.7332

     occupation numbers 
     1.0000   1.0000   1.0000   1.0000   1.0000   1.0000   1.0000   1.0000
     1.0000   1.0000   1.0000   1.0000   1.0000   1.0000   1.0000   1.0000
     1.0000   1.0000   1.0000   1.0000   1.0000   1.0000   1.0000   1.0000
     1.0000   1.0000   1.0000   1.0000   1.0000   1.0000   1.0000   1.0000
     0.0000   0.0000   0.0000   0.0000   0.0000   0.0000   0.0000   0.0000
     0.0000   0.0000

          k = 0.1667 0.4811 0.0000 ( 52543 PWs)   bands (ev):

   -74.4675 -74.4674 -46.2198 -46.2194 -46.1907 -46.1893 -46.1878 -46.1863
   -18.1254 -17.8330 -17.6043 -17.5729 -17.4577 -17.4026  -9.7379  -9.2965
    -9.0766  -8.8568  -8.5625  -8.4657  -8.2191  -7.8499  -7.6722  -7.5604
    -7.3967  -7.1868  -6.9407  -6.7935  -6.6885  -6.5161  -6.2922  -6.1296
    -3.9337  -3.8906  -3.6583  -3.6112  -3.4323  -3.3990  -2.9237  -2.8373
    -2.7570  -2.7416

     occupation numbers 
     1.0000   1.0000   1.0000   1.0000   1.0000   1.0000   1.0000   1.0000
     1.0000   1.0000   1.0000   1.0000   1.0000   1.0000   1.0000   1.0000
     1.0000   1.0000   1.0000   1.0000   1.0000   1.0000   1.0000   1.0000
     1.0000   1.0000   1.0000   1.0000   1.0000   1.0000   1.0000   1.0000
     0.0000   0.0000   0.0000   0.0000   0.0000   0.0000   0.0000   0.0000
     0.0000   0.0000

          k = 0.1667 0.5453 0.0000 ( 52537 PWs)   bands (ev):

   -74.4675 -74.4674 -46.2198 -46.2195 -46.1908 -46.1892 -46.1879 -46.1863
   -18.0747 -17.8851 -17.6110 -17.5450 -17.4808 -17.4058  -9.7308  -9.2671
    -9.0849  -8.7654  -8.6209  -8.4698  -8.2032  -7.9843  -7.6562  -7.5872
    -7.3003  -7.1911  -6.8960  -6.8155  -6.6634  -6.5583  -6.2996  -6.1075
    -3.9383  -3.9201  -3.6496  -3.6274  -3.4286  -3.3913  -2.9034  -2.8449
    -2.7537  -2.7284

     occupation numbers 
     1.0000   1.0000   1.0000   1.0000   1.0000   1.0000   1.0000   1.0000
     1.0000   1.0000   1.0000   1.0000   1.0000   1.0000   1.0000   1.0000
     1.0000   1.0000   1.0000   1.0000   1.0000   1.0000   1.0000   1.0000
     1.0000   1.0000   1.0000   1.0000   1.0000   1.0000   1.0000   1.0000
     0.0000   0.0000   0.0000   0.0000   0.0000   0.0000   0.0000   0.0000
     0.0000   0.0000

          k = 0.2222 0.3849 0.0000 ( 52542 PWs)   bands (ev):

   -74.4675 -74.4674 -46.2199 -46.2193 -46.1907 -46.1894 -46.1876 -46.1863
   -18.1932 -17.7548 -17.6089 -17.6002 -17.4290 -17.3969  -9.7293  -9.3596
    -9.0196  -8.9794  -8.6574  -8.3219  -8.2413  -7.7146  -7.6802  -7.5368
    -7.4814  -7.1566  -7.0393  -6.8905  -6.5179  -6.5097  -6.2806  -6.1912
    -3.9102  -3.8365  -3.6828  -3.5907  -3.4332  -3.4226  -2.9531  -2.8165
    -2.7931  -2.7304

     occupation numbers 
     1.0000   1.0000   1.0000   1.0000   1.0000   1.0000   1.0000   1.0000
     1.0000   1.0000   1.0000   1.0000   1.0000   1.0000   1.0000   1.0000
     1.0000   1.0000   1.0000   1.0000   1.0000   1.0000   1.0000   1.0000
     1.0000   1.0000   1.0000   1.0000   1.0000   1.0000   1.0000   1.0000
     0.0000   0.0000   0.0000   0.0000   0.0000   0.0000   0.0000   0.0000
     0.0000   0.0000

          k = 0.2222 0.4491 0.0000 ( 52530 PWs)   bands (ev):

   -74.4675 -74.4674 -46.2198 -46.2194 -46.1908 -46.1892 -46.1878 -46.1863
   -18.1308 -17.8130 -17.6222 -17.5769 -17.4483 -17.4050  -9.6792  -9.3467
    -9.0171  -8.9405  -8.5862  -8.4652  -8.2206  -7.8472  -7.6784  -7.5770
    -7.3806  -7.1388  -6.9887  -6.7855  -6.5919  -6.5214  -6.2679  -6.2033
    -3.9313  -3.8537  -3.7004  -3.6085  -3.4226  -3.4089  -2.9150  -2.8203
    -2.7587  -2.7400

     occupation numbers 
     1.0000   1.0000   1.0000   1.0000   1.0000   1.0000   1.0000   1.0000
     1.0000   1.0000   1.0000   1.0000   1.0000   1.0000   1.0000   1.0000
     1.0000   1.0000   1.0000   1.0000   1.0000   1.0000   1.0000   1.0000
     1.0000   1.0000   1.0000   1.0000   1.0000   1.0000   1.0000   1.0000
     0.0000   0.0000   0.0000   0.0000   0.0000   0.0000   0.0000   0.0000
     0.0000   0.0000

          k = 0.2222 0.5132 0.0000 ( 52530 PWs)   bands (ev):

   -74.4675 -74.4674 -46.2198 -46.2195 -46.1908 -46.1890 -46.1880 -46.1862
   -18.0705 -17.8711 -17.6357 -17.5464 -17.4704 -17.4107  -9.6467  -9.3233
    -9.0249  -8.8665  -8.6313  -8.4788  -8.2181  -8.0125  -7.6496  -7.6169
    -7.2510  -7.1333  -6.9533  -6.7170  -6.6508  -6.5506  -6.2760  -6.1808
    -3.9357  -3.8842  -3.7047  -3.6228  -3.4168  -3.4000  -2.8781  -2.8285
    -2.7573  -2.7217

     occupation numbers 
     1.0000   1.0000   1.0000   1.0000   1.0000   1.0000   1.0000   1.0000
     1.0000   1.0000   1.0000   1.0000   1.0000   1.0000   1.0000   1.0000
     1.0000   1.0000   1.0000   1.0000   1.0000   1.0000   1.0000   1.0000
     1.0000   1.0000   1.0000   1.0000   1.0000   1.0000   1.0000   1.0000
     0.0000   0.0000   0.0000   0.0000   0.0000   0.0000   0.0000   0.0000
     0.0000   0.0000

          k = 0.2222 0.5774 0.0000 ( 52506 PWs)   bands (ev):

   -74.4675 -74.4674 -46.2197 -46.2195 -46.1908 -46.1890 -46.1881 -46.1862
   -18.0379 -17.9031 -17.6403 -17.5289 -17.4849 -17.4128  -9.6362  -9.3106
    -9.0282  -8.7899  -8.7307  -8.4340  -8.2169  -8.0927  -7.6383  -7.6288
    -7.1958  -7.1332  -6.9347  -6.7410  -6.6219  -6.5778  -6.2806  -6.1694
    -3.9286  -3.9055  -3.7043  -3.6286  -3.4151  -3.3969  -2.8567  -2.8386
    -2.7617  -2.7097

     occupation numbers 
     1.0000   1.0000   1.0000   1.0000   1.0000   1.0000   1.0000   1.0000
     1.0000   1.0000   1.0000   1.0000   1.0000   1.0000   1.0000   1.0000
     1.0000   1.0000   1.0000   1.0000   1.0000   1.0000   1.0000   1.0000
     1.0000   1.0000   1.0000   1.0000   1.0000   1.0000   1.0000   1.0000
     0.0000   0.0000   0.0000   0.0000   0.0000   0.0000   0.0000   0.0000
     0.0000   0.0000

          k = 0.2778 0.4811 0.0000 ( 52508 PWs)   bands (ev):

   -74.4675 -74.4674 -46.2198 -46.2195 -46.1908 -46.1890 -46.1880 -46.1862
   -18.0698 -17.8638 -17.6462 -17.5473 -17.4652 -17.4135  -9.5998  -9.3604
    -8.9581  -8.9478  -8.6343  -8.4864  -8.2201  -8.0223  -7.6472  -7.6275
    -7.2340  -7.0995  -6.9882  -6.6936  -6.6118  -6.5589  -6.2443  -6.2397
    -3.9345  -3.8616  -3.7342  -3.6206  -3.4110  -3.4056  -2.8718  -2.8184
    -2.7588  -2.7189

     occupation numbers 
     1.0000   1.0000   1.0000   1.0000   1.0000   1.0000   1.0000   1.0000
     1.0000   1.0000   1.0000   1.0000   1.0000   1.0000   1.0000   1.0000
     1.0000   1.0000   1.0000   1.0000   1.0000   1.0000   1.0000   1.0000
     1.0000   1.0000   1.0000   1.0000   1.0000   1.0000   1.0000   1.0000
     0.0000   0.0000   0.0000   0.0000   0.0000   0.0000   0.0000   0.0000
     0.0000   0.0000

          k = 0.2778 0.5453 0.0000 ( 52522 PWs)   bands (ev):

   -74.4675 -74.4674 -46.2197 -46.2195 -46.1908 -46.1888 -46.1882 -46.1862
   -18.0147 -17.9133 -17.6590 -17.5213 -17.4837 -17.4187  -9.5437  -9.3714
    -8.9587  -8.8742  -8.7602  -8.4121  -8.2264  -8.1551  -7.6510  -7.6278
    -7.1370  -7.0785  -6.9868  -6.6639  -6.6243  -6.5789  -6.2610  -6.2265
    -3.9214  -3.8843  -3.7498  -3.6275  -3.4070  -3.4021  -2.8389  -2.8194
    -2.7715  -2.6971

     occupation numbers 
     1.0000   1.0000   1.0000   1.0000   1.0000   1.0000   1.0000   1.0000
     1.0000   1.0000   1.0000   1.0000   1.0000   1.0000   1.0000   1.0000
     1.0000   1.0000   1.0000   1.0000   1.0000   1.0000   1.0000   1.0000
     1.0000   1.0000   1.0000   1.0000   1.0000   1.0000   1.0000   1.0000
     0.0000   0.0000   0.0000   0.0000   0.0000   0.0000   0.0000   0.0000
     0.0000   0.0000

          k = 0.3333 0.5774 0.0000 ( 52536 PWs)   bands (ev):

   -74.4674 -74.4674 -46.2196 -46.2196 -46.1908 -46.1885 -46.1885 -46.1862
   -17.9614 -17.9614 -17.6677 -17.5001 -17.5001 -17.4223  -9.4464  -9.4464
    -8.8985  -8.8610  -8.8610  -8.3618  -8.2311  -8.2311  -7.6626  -7.6197
    -7.0878  -7.0318  -7.0318  -6.6317  -6.6317  -6.5862  -6.2505  -6.2505
    -3.8987  -3.8987  -3.7691  -3.6290  -3.4034  -3.4034  -2.8303  -2.7936
    -2.7936  -2.6868

     occupation numbers 
     1.0000   1.0000   1.0000   1.0000   1.0000   1.0000   1.0000   1.0000
     1.0000   1.0000   1.0000   1.0000   1.0000   1.0000   1.0000   1.0000
     1.0000   1.0000   1.0000   1.0000   1.0000   1.0000   1.0000   1.0000
     1.0000   1.0000   1.0000   1.0000   1.0000   1.0000   1.0000   1.0000
     0.0000   0.0000   0.0000   0.0000   0.0000   0.0000   0.0000   0.0000
     0.0000   0.0000

     the Fermi energy is    -4.9346 ev

!    total energy              =    -512.08856943 Ry
     estimated scf accuracy    <          2.8E-14 Ry
     smearing contrib. (-TS)   =      -0.00000000 Ry
     internal energy E=F+TS    =    -512.08856943 Ry

     The total energy is F=E-TS. E is the sum of the following terms:
     one-electron contribution =   -1703.12209811 Ry
     hartree contribution      =     845.80893382 Ry
     xc contribution           =     -99.95649589 Ry
     ewald contribution        =     445.18109075 Ry

     total magnetization       =     6.00 Bohr mag/cell
     absolute magnetization    =     7.13 Bohr mag/cell

     convergence has been achieved in  16 iterations

     Writing all to output data dir ./cri3_90Ry_k18x18x1.save/
 
     init_run     :     18.98s CPU     19.96s WALL (       1 calls)
     electrons    :   1815.30s CPU   1849.60s WALL (       1 calls)

     Called by init_run:
     wfcinit      :     18.07s CPU     18.99s WALL (       1 calls)
     wfcinit:atom :      0.27s CPU      0.47s WALL (      74 calls)
     wfcinit:wfcr :     16.49s CPU     16.97s WALL (      74 calls)
     potinit      :      0.24s CPU      0.25s WALL (       1 calls)
     hinit0       :      0.41s CPU      0.44s WALL (       1 calls)

     Called by electrons:
     c_bands      :   1626.22s CPU   1656.71s WALL (      16 calls)
     sum_band     :    186.49s CPU    190.04s WALL (      16 calls)
     v_of_rho     :      0.55s CPU      0.57s WALL (      17 calls)
     v_h          :      0.20s CPU      0.20s WALL (      17 calls)
     v_xc         :      0.35s CPU      0.37s WALL (      17 calls)
     mix_rho      :      1.80s CPU      1.87s WALL (      16 calls)

     Called by c_bands:
     init_us_2    :     25.77s CPU     25.99s WALL (    2442 calls)
     init_us_2:cp :     25.73s CPU     25.98s WALL (    2442 calls)
     cegterg      :   1525.43s CPU   1555.20s WALL (    1204 calls)

     Called by sum_band:
     sum_band:wei :      0.02s CPU      0.02s WALL (      16 calls)
     sum_band:loo :    185.70s CPU    189.24s WALL (      16 calls)
     sum_band:buf :      4.98s CPU      5.03s WALL (    1184 calls)
     sum_band:ini :     12.68s CPU     12.78s WALL (    1184 calls)

     Called by *egterg:
     cdiaghg      :     30.04s CPU     34.13s WALL (    7217 calls)
     cegterg:over :     85.44s CPU     86.52s WALL (    6033 calls)
     cegterg:upda :    154.00s CPU    155.61s WALL (    6033 calls)
     cegterg:last :    169.86s CPU    171.17s WALL (    3278 calls)
     cdiaghg:chol :      2.75s CPU      2.83s WALL (    7217 calls)
     cdiaghg:inve :      1.49s CPU      1.56s WALL (    7217 calls)
     cdiaghg:para :      2.25s CPU      2.32s WALL (   14434 calls)
     h_psi        :   1066.71s CPU   1087.65s WALL (    7311 calls)
     g_psi        :      5.99s CPU      6.08s WALL (    6033 calls)

     Called by h_psi:
     h_psi:calbec :     77.18s CPU     78.01s WALL (    7311 calls)
     vloc_psi     :    879.37s CPU    898.32s WALL (    7311 calls)
     add_vuspsi   :     96.42s CPU     97.09s WALL (    7311 calls)

     General routines
     calbec       :     77.12s CPU     77.98s WALL (    7311 calls)
     fft          :      0.54s CPU      0.58s WALL (      83 calls)
     ffts         :      0.17s CPU      0.17s WALL (      32 calls)
     fftw         :    711.92s CPU    727.64s WALL (  380442 calls)
 
     Parallel routines
 
     PWSCF        :  30m36.37s CPU  31m26.30s WALL

 
   This run was terminated on:  10:40:56  19Jan2024            

=------------------------------------------------------------------------------=
   JOB DONE.
=------------------------------------------------------------------------------=
