
     Program PWSCF v.7.0 starts on 10Jan2024 at 14:40:56 

     This program is part of the open-source Quantum ESPRESSO suite
     for quantum simulation of materials; please cite
         "P. Giannozzi et al., J. Phys.:Condens. Matter 21 395502 (2009);
         "P. Giannozzi et al., J. Phys.:Condens. Matter 29 465901 (2017);
         "P. Giannozzi et al., J. Chem. Phys. 152 154105 (2020);
          URL http://www.quantum-espresso.org", 
     in publications or presentations arising from this work. More details at
     http://www.quantum-espresso.org/quote

     Parallel version (MPI), running on    24 processors

     MPI processes distributed on     1 nodes
     R & G space division:  proc/nbgrp/npool/nimage =      24
     125130 MiB available memory on the printing compute node when the environment starts
 
     Reading input from cri3-exp-nosoc_6x6x1.scf.in

     Current dimensions of program PWSCF are:
     Max number of different atomic species (ntypx) = 10
     Max number of k-points (npk) =  40000
     Max angular momentum in pseudopotentials (lmaxx) =  4

     Subspace diagonalization in iterative solution of the eigenvalue problem:
     one sub-group per band group will be used
     scalapack distributed-memory algorithm (size of sub-group:  4*  4 procs)

 
     Parallelization info
     --------------------
     sticks:   dense  smooth     PW     G-vecs:    dense   smooth      PW
     Min         174     174     46                17524    17524    2418
     Max         175     175     47                17533    17533    2425
     Sum        4177    4177   1123               420595   420595   58117
 
     Using Slab Decomposition
 


     bravais-lattice index     =            4
     lattice parameter (alat)  =      12.9767  a.u.
     unit-cell volume          =    3645.8815 (a.u.)^3
     number of atoms/cell      =            8
     number of atomic types    =            2
     number of electrons       =        70.00
     number of Kohn-Sham states=           42
     kinetic-energy cutoff     =      90.0000  Ry
     charge density cutoff     =     360.0000  Ry
     scf convergence threshold =      1.0E-13
     mixing beta               =       0.7000
     number of iterations used =            8  plain     mixing
     Exchange-correlation= PZ
                           (   1   1   0   0   0   0   0)

     celldm(1)=  12.976749  celldm(2)=   0.000000  celldm(3)=   1.926523
     celldm(4)=   0.000000  celldm(5)=   0.000000  celldm(6)=   0.000000

     crystal axes: (cart. coord. in units of alat)
               a(1) = (   1.000000   0.000000   0.000000 )  
               a(2) = (  -0.500000   0.866025   0.000000 )  
               a(3) = (   0.000000   0.000000   1.926523 )  

     reciprocal axes: (cart. coord. in units 2 pi/alat)
               b(1) = (  1.000000  0.577350  0.000000 )  
               b(2) = (  0.000000  1.154701  0.000000 )  
               b(3) = (  0.000000  0.000000  0.519070 )  


     PseudoPot. # 1 for Cr read from file:
     ./Cr_Alejandro.upf
     MD5 check sum: 19f8874af457815d5c8e16c7b8c57f71
     Pseudo is Norm-conserving + core correction, Zval = 14.0
     Generated using ONCVPSP code by D. R. Hamann
     Using radial grid of 1600 points,  6 beta functions with: 
                l(1) =   0
                l(2) =   0
                l(3) =   1
                l(4) =   1
                l(5) =   2
                l(6) =   2

     PseudoPot. # 2 for I  read from file:
     ./I_Alejandro.upf
     MD5 check sum: d0d4d45a39a9ecd37d4d9deb6bd296a3
     Pseudo is Norm-conserving + core correction, Zval =  7.0
     Generated using ONCVPSP code by D. R. Hamann
     Using radial grid of 1196 points,  6 beta functions with: 
                l(1) =   0
                l(2) =   0
                l(3) =   1
                l(4) =   1
                l(5) =   2
                l(6) =   2

     atomic species   valence    mass     pseudopotential
        Cr            14.00    51.99000     Cr( 1.00)
        I              7.00   126.90000     I ( 1.00)

     Starting magnetic structure 
     atomic species   magnetization
        Cr           1.000
        I            0.000

      6 Sym. Ops. (no inversion) found ( 3 have fractional translation)


                                    s                        frac. trans.

      isym =  1     identity                                     

 cryst.   s( 1) = (     1          0          0      )
                  (     0          1          0      )
                  (     0          0          1      )

 cart.    s( 1) = (  1.0000000  0.0000000  0.0000000 )
                  (  0.0000000  1.0000000  0.0000000 )
                  (  0.0000000  0.0000000  1.0000000 )


      isym =  2     120 deg rotation - cryst. axis [0,0,1]       

 cryst.   s( 2) = (     0          1          0      )
                  (    -1         -1          0      )
                  (     0          0          1      )

 cart.    s( 2) = ( -0.5000000 -0.8660254  0.0000000 )
                  (  0.8660254 -0.5000000  0.0000000 )
                  (  0.0000000  0.0000000  1.0000000 )


      isym =  3     120 deg rotation - cryst. axis [0,0,-1]      

 cryst.   s( 3) = (    -1         -1          0      )
                  (     1          0          0      )
                  (     0          0          1      )

 cart.    s( 3) = ( -0.5000000  0.8660254  0.0000000 )
                  ( -0.8660254 -0.5000000  0.0000000 )
                  (  0.0000000  0.0000000  1.0000000 )


      isym =  4     inv. 180 deg rotation - cart. axis [0,1,0]   

 cryst.   s( 4) = (     1          0          0      )    f =( -0.3333333 )
                  (    -1         -1          0      )       (  0.3333333 )
                  (     0          0          1      )       (  0.0000000 )

 cart.    s( 4) = (  1.0000000  0.0000000  0.0000000 )    f =( -0.5000000 )
                  (  0.0000000 -1.0000000  0.0000000 )       (  0.2886751 )
                  (  0.0000000  0.0000000  1.0000000 )       (  0.0000000 )


      isym =  5     inv. 180 deg rotation - cryst. axis [1,-1,0] 

 cryst.   s( 5) = (     0          1          0      )    f =( -0.3333333 )
                  (     1          0          0      )       (  0.3333333 )
                  (     0          0          1      )       (  0.0000000 )

 cart.    s( 5) = ( -0.5000000  0.8660254  0.0000000 )    f =( -0.5000000 )
                  (  0.8660254  0.5000000  0.0000000 )       (  0.2886751 )
                  (  0.0000000  0.0000000  1.0000000 )       (  0.0000000 )


      isym =  6     inv. 180 deg rotation - cryst. axis [2,1,0]  

 cryst.   s( 6) = (    -1         -1          0      )    f =( -0.3333333 )
                  (     0          1          0      )       (  0.3333333 )
                  (     0          0          1      )       (  0.0000000 )

 cart.    s( 6) = ( -0.5000000 -0.8660254  0.0000000 )    f =( -0.5000000 )
                  ( -0.8660254  0.5000000  0.0000000 )       (  0.2886751 )
                  (  0.0000000  0.0000000  1.0000000 )       (  0.0000000 )


     point group C_3v (3m)  
     there are  3 classes
     the character table:

       E     2C3   3s_v 
A_1    1.00  1.00  1.00
A_2    1.00  1.00 -1.00
E      2.00 -1.00  0.00

     the symmetry operations in each class and the name of the first element:

     E        1
          identity                                               
     2C3      2    3
          120 deg rotation - cryst. axis [0,0,1]                 
     3s_v     4    6    5
          inv. 180 deg rotation - cart. axis [0,1,0]             

   Cartesian axes

     site n.     atom                  positions (alat units)
         1           Cr  tau(   1) = (   0.0000000   0.0000000   0.4846161  )
         2           Cr  tau(   2) = (   0.0000000   0.5773503   0.4846161  )
         3           I   tau(   3) = (  -0.1753225   0.8510331   0.7123856  )
         4           I   tau(   4) = (   0.3246775   0.5923426   0.7123856  )
         5           I   tau(   5) = (  -0.1493550   0.2886751   0.7123856  )
         6           I   tau(   6) = (  -0.3246775   0.5923426   0.2568467  )
         7           I   tau(   7) = (   0.1753225   0.8510331   0.2568467  )
         8           I   tau(   8) = (   0.1493550   0.2886751   0.2568467  )

   Crystallographic axes

     site n.     atom                  positions (cryst. coord.)
         1           Cr  tau(   1) = (  0.0000000  0.0000000  0.2515496  )
         2           Cr  tau(   2) = (  0.3333333  0.6666667  0.2515496  )
         3           I   tau(   3) = (  0.3160217  0.9826883  0.3697779  )
         4           I   tau(   4) = (  0.6666667  0.6839783  0.3697779  )
         5           I   tau(   5) = (  0.0173117  0.3333333  0.3697779  )
         6           I   tau(   6) = (  0.0173117  0.6839783  0.1333214  )
         7           I   tau(   7) = (  0.6666667  0.9826883  0.1333214  )
         8           I   tau(   8) = (  0.3160217  0.3333333  0.1333214  )

     number of k points=     7  Gaussian smearing, width (Ry)=  0.0050
                       cart. coord. in units 2pi/alat
        k(    1) = (   0.0000000   0.0000000   0.0000000), wk =   0.0277778
        k(    2) = (   0.0000000   0.1924501   0.0000000), wk =   0.1666667
        k(    3) = (   0.0000000   0.3849002   0.0000000), wk =   0.1666667
        k(    4) = (   0.0000000  -0.5773503   0.0000000), wk =   0.0833333
        k(    5) = (   0.1666667   0.2886751   0.0000000), wk =   0.1666667
        k(    6) = (   0.1666667   0.4811252   0.0000000), wk =   0.3333333
        k(    7) = (   0.3333333   0.5773503   0.0000000), wk =   0.0555556

                       cryst. coord.
        k(    1) = (   0.0000000   0.0000000   0.0000000), wk =   0.0277778
        k(    2) = (   0.0000000   0.1666667   0.0000000), wk =   0.1666667
        k(    3) = (   0.0000000   0.3333333   0.0000000), wk =   0.1666667
        k(    4) = (   0.0000000  -0.5000000   0.0000000), wk =   0.0833333
        k(    5) = (   0.1666667   0.1666667   0.0000000), wk =   0.1666667
        k(    6) = (   0.1666667   0.3333333   0.0000000), wk =   0.3333333
        k(    7) = (   0.3333333   0.3333333   0.0000000), wk =   0.0555556

     Dense  grid:   420595 G-vectors     FFT dimensions: (  81,  81, 160)

     Dynamical RAM for                 wfc:       1.40 MB

     Dynamical RAM for     wfc (w. buffer):      21.05 MB

     Dynamical RAM for           str. fact:       0.53 MB

     Dynamical RAM for           local pot:       0.00 MB

     Dynamical RAM for          nlocal pot:       4.81 MB

     Dynamical RAM for                qrad:       3.05 MB

     Dynamical RAM for          rho,v,vnew:       3.71 MB

     Dynamical RAM for               rhoin:       1.24 MB

     Dynamical RAM for            rho*nmix:       8.56 MB

     Dynamical RAM for           G-vectors:       1.14 MB

     Dynamical RAM for          h,s,v(r/c):       0.02 MB

     Dynamical RAM for          <psi|beta>:       0.09 MB

     Dynamical RAM for                 psi:       2.81 MB

     Dynamical RAM for                hpsi:       2.81 MB

     Dynamical RAM for      wfcinit/wfcrot:       2.99 MB

     Estimated static dynamical RAM per process >      38.43 MB

     Estimated max dynamical RAM per process >      52.71 MB

     Estimated total dynamical RAM >       1.24 GB
 ----2D----2D----2D----2D----2D----2D----2D----2D----2D----2D----2D----2D
  The code is running with the 2D cutoff
  Please refer to:
  Sohier, T., Calandra, M., & Mauri, F. (2017), 
  Density functional perturbation theory for gated two-dimensional heterostructu
 res:
  Theoretical developments and application to flexural phonons in graphene.
  Physical Review B, 96(7), 75448. https://doi.org/10.1103/PhysRevB.96.075448
 ----2D----2D----2D----2D----2D----2D----2D----2D----2D----2D----2D----2D
     Generating pointlists ...
     new r_m :   0.1637 (alat units)  2.1245 (a.u.) for type    1
     new r_m :   0.1637 (alat units)  2.1245 (a.u.) for type    2

     Initial potential from superposition of free atoms

     starting charge      69.9974, renormalised to      70.0000

     negative rho (up, down):  1.142E-07 1.434E-08
     Starting wfcs are   44 randomized atomic wfcs

     total cpu time spent up to now is        2.6 secs

     Self-consistent Calculation

     iteration #  1     ecut=    90.00 Ry     beta= 0.70
     Davidson diagonalization with overlap

---- Real-time Memory Report at c_bands before calling an iterative solver
           178 MiB given to the printing process from OS
             0 MiB allocation reported by mallinfo(arena+hblkhd)
        123755 MiB available memory on the node where the printing process lives
------------------
     c_bands:  5 eigenvalues not converged
     c_bands:  4 eigenvalues not converged
     c_bands:  1 eigenvalues not converged
     c_bands:  5 eigenvalues not converged
     c_bands:  5 eigenvalues not converged
     c_bands:  3 eigenvalues not converged
     ethr =  5.00E-06,  avg # of iterations = 17.7

     negative rho (up, down):  2.972E-08 1.469E-09

     total cpu time spent up to now is       18.2 secs

     total energy              =    -511.37676733 Ry
     estimated scf accuracy    <       4.55766049 Ry

     total magnetization       =     6.00 Bohr mag/cell
     absolute magnetization    =    10.88 Bohr mag/cell

     iteration #  2     ecut=    90.00 Ry     beta= 0.70
     Davidson diagonalization with overlap

---- Real-time Memory Report at c_bands before calling an iterative solver
           194 MiB given to the printing process from OS
             0 MiB allocation reported by mallinfo(arena+hblkhd)
        120266 MiB available memory on the node where the printing process lives
------------------
     ethr =  6.51E-03,  avg # of iterations =  5.6

     total cpu time spent up to now is       24.8 secs

     total energy              =    -511.50438303 Ry
     estimated scf accuracy    <       0.96815020 Ry

     total magnetization       =     6.00 Bohr mag/cell
     absolute magnetization    =    10.62 Bohr mag/cell

     iteration #  3     ecut=    90.00 Ry     beta= 0.70
     Davidson diagonalization with overlap

---- Real-time Memory Report at c_bands before calling an iterative solver
           196 MiB given to the printing process from OS
             0 MiB allocation reported by mallinfo(arena+hblkhd)
        118363 MiB available memory on the node where the printing process lives
------------------
     ethr =  1.38E-03,  avg # of iterations =  7.9

     total cpu time spent up to now is       33.2 secs

     total energy              =    -511.46927544 Ry
     estimated scf accuracy    <       6.04073441 Ry

     total magnetization       =     6.00 Bohr mag/cell
     absolute magnetization    =     6.39 Bohr mag/cell

     iteration #  4     ecut=    90.00 Ry     beta= 0.70
     Davidson diagonalization with overlap

---- Real-time Memory Report at c_bands before calling an iterative solver
           197 MiB given to the printing process from OS
             0 MiB allocation reported by mallinfo(arena+hblkhd)
        116423 MiB available memory on the node where the printing process lives
------------------
     ethr =  1.38E-03,  avg # of iterations =  7.6

     total cpu time spent up to now is       41.6 secs

     total energy              =    -512.05587609 Ry
     estimated scf accuracy    <       0.10110937 Ry

     total magnetization       =     6.00 Bohr mag/cell
     absolute magnetization    =     7.58 Bohr mag/cell

     iteration #  5     ecut=    90.00 Ry     beta= 0.70
     Davidson diagonalization with overlap

---- Real-time Memory Report at c_bands before calling an iterative solver
           198 MiB given to the printing process from OS
             0 MiB allocation reported by mallinfo(arena+hblkhd)
        113367 MiB available memory on the node where the printing process lives
------------------
     ethr =  1.44E-04,  avg # of iterations =  7.1

     total cpu time spent up to now is       49.0 secs

     total energy              =    -512.08614340 Ry
     estimated scf accuracy    <       0.00462811 Ry

     total magnetization       =     6.00 Bohr mag/cell
     absolute magnetization    =     7.51 Bohr mag/cell

     iteration #  6     ecut=    90.00 Ry     beta= 0.70
     Davidson diagonalization with overlap

---- Real-time Memory Report at c_bands before calling an iterative solver
           199 MiB given to the printing process from OS
             0 MiB allocation reported by mallinfo(arena+hblkhd)
        111724 MiB available memory on the node where the printing process lives
------------------
     ethr =  6.61E-06,  avg # of iterations =  3.9

     total cpu time spent up to now is       54.8 secs

     total energy              =    -512.08807096 Ry
     estimated scf accuracy    <       0.00129647 Ry

     total magnetization       =     6.00 Bohr mag/cell
     absolute magnetization    =     7.34 Bohr mag/cell

     iteration #  7     ecut=    90.00 Ry     beta= 0.70
     Davidson diagonalization with overlap

---- Real-time Memory Report at c_bands before calling an iterative solver
           200 MiB given to the printing process from OS
             0 MiB allocation reported by mallinfo(arena+hblkhd)
        111655 MiB available memory on the node where the printing process lives
------------------
     ethr =  1.85E-06,  avg # of iterations =  2.9

     total cpu time spent up to now is       60.7 secs

     total energy              =    -512.08846312 Ry
     estimated scf accuracy    <       0.00023941 Ry

     total magnetization       =     6.00 Bohr mag/cell
     absolute magnetization    =     7.17 Bohr mag/cell

     iteration #  8     ecut=    90.00 Ry     beta= 0.70
     Davidson diagonalization with overlap

---- Real-time Memory Report at c_bands before calling an iterative solver
           202 MiB given to the printing process from OS
             0 MiB allocation reported by mallinfo(arena+hblkhd)
        111626 MiB available memory on the node where the printing process lives
------------------
     ethr =  3.42E-07,  avg # of iterations =  3.7

     total cpu time spent up to now is       67.3 secs

     total energy              =    -512.08843230 Ry
     estimated scf accuracy    <       0.00077625 Ry

     total magnetization       =     6.00 Bohr mag/cell
     absolute magnetization    =     7.14 Bohr mag/cell

     iteration #  9     ecut=    90.00 Ry     beta= 0.70
     Davidson diagonalization with overlap

---- Real-time Memory Report at c_bands before calling an iterative solver
           203 MiB given to the printing process from OS
             0 MiB allocation reported by mallinfo(arena+hblkhd)
        111573 MiB available memory on the node where the printing process lives
------------------
     ethr =  3.42E-07,  avg # of iterations =  2.6

     total cpu time spent up to now is       73.0 secs

     total energy              =    -512.08856305 Ry
     estimated scf accuracy    <       0.00001645 Ry

     total magnetization       =     6.00 Bohr mag/cell
     absolute magnetization    =     7.13 Bohr mag/cell

     iteration # 10     ecut=    90.00 Ry     beta= 0.70
     Davidson diagonalization with overlap

---- Real-time Memory Report at c_bands before calling an iterative solver
           205 MiB given to the printing process from OS
             0 MiB allocation reported by mallinfo(arena+hblkhd)
        111545 MiB available memory on the node where the printing process lives
------------------
     ethr =  2.35E-08,  avg # of iterations =  3.5

     total cpu time spent up to now is       79.1 secs

     total energy              =    -512.08856702 Ry
     estimated scf accuracy    <       0.00000458 Ry

     total magnetization       =     6.00 Bohr mag/cell
     absolute magnetization    =     7.13 Bohr mag/cell

     iteration # 11     ecut=    90.00 Ry     beta= 0.70
     Davidson diagonalization with overlap

---- Real-time Memory Report at c_bands before calling an iterative solver
           205 MiB given to the printing process from OS
             0 MiB allocation reported by mallinfo(arena+hblkhd)
        111436 MiB available memory on the node where the printing process lives
------------------
     ethr =  6.55E-09,  avg # of iterations =  1.6

     total cpu time spent up to now is       83.8 secs

     total energy              =    -512.08856730 Ry
     estimated scf accuracy    <       0.00000050 Ry

     total magnetization       =     6.00 Bohr mag/cell
     absolute magnetization    =     7.13 Bohr mag/cell

     iteration # 12     ecut=    90.00 Ry     beta= 0.70
     Davidson diagonalization with overlap

---- Real-time Memory Report at c_bands before calling an iterative solver
           205 MiB given to the printing process from OS
             0 MiB allocation reported by mallinfo(arena+hblkhd)
        111412 MiB available memory on the node where the printing process lives
------------------
     ethr =  7.11E-10,  avg # of iterations =  3.6

     total cpu time spent up to now is       90.1 secs

     total energy              =    -512.08856741 Ry
     estimated scf accuracy    <          5.0E-09 Ry

     total magnetization       =     6.00 Bohr mag/cell
     absolute magnetization    =     7.13 Bohr mag/cell

     iteration # 13     ecut=    90.00 Ry     beta= 0.70
     Davidson diagonalization with overlap

---- Real-time Memory Report at c_bands before calling an iterative solver
           205 MiB given to the printing process from OS
             0 MiB allocation reported by mallinfo(arena+hblkhd)
        111387 MiB available memory on the node where the printing process lives
------------------
     ethr =  7.11E-12,  avg # of iterations =  5.5

     total cpu time spent up to now is       98.9 secs

     total energy              =    -512.08856741 Ry
     estimated scf accuracy    <          9.8E-09 Ry

     total magnetization       =     6.00 Bohr mag/cell
     absolute magnetization    =     7.13 Bohr mag/cell

     iteration # 14     ecut=    90.00 Ry     beta= 0.70
     Davidson diagonalization with overlap

---- Real-time Memory Report at c_bands before calling an iterative solver
           205 MiB given to the printing process from OS
             0 MiB allocation reported by mallinfo(arena+hblkhd)
        111335 MiB available memory on the node where the printing process lives
------------------
     ethr =  7.11E-12,  avg # of iterations =  2.3

     total cpu time spent up to now is      104.3 secs

     total energy              =    -512.08856741 Ry
     estimated scf accuracy    <          1.9E-10 Ry

     total magnetization       =     6.00 Bohr mag/cell
     absolute magnetization    =     7.13 Bohr mag/cell

     iteration # 15     ecut=    90.00 Ry     beta= 0.70
     Davidson diagonalization with overlap

---- Real-time Memory Report at c_bands before calling an iterative solver
           205 MiB given to the printing process from OS
             0 MiB allocation reported by mallinfo(arena+hblkhd)
        111334 MiB available memory on the node where the printing process lives
------------------
     ethr =  2.65E-13,  avg # of iterations =  4.4

     total cpu time spent up to now is      111.5 secs

     total energy              =    -512.08856741 Ry
     estimated scf accuracy    <          3.4E-11 Ry

     total magnetization       =     6.00 Bohr mag/cell
     absolute magnetization    =     7.13 Bohr mag/cell

     iteration # 16     ecut=    90.00 Ry     beta= 0.70
     Davidson diagonalization with overlap

---- Real-time Memory Report at c_bands before calling an iterative solver
           205 MiB given to the printing process from OS
             0 MiB allocation reported by mallinfo(arena+hblkhd)
        111316 MiB available memory on the node where the printing process lives
------------------
     ethr =  1.00E-13,  avg # of iterations =  1.8

     total cpu time spent up to now is      116.4 secs

     total energy              =    -512.08856741 Ry
     estimated scf accuracy    <          5.6E-12 Ry

     total magnetization       =     6.00 Bohr mag/cell
     absolute magnetization    =     7.13 Bohr mag/cell

     iteration # 17     ecut=    90.00 Ry     beta= 0.70
     Davidson diagonalization with overlap

---- Real-time Memory Report at c_bands before calling an iterative solver
           205 MiB given to the printing process from OS
             0 MiB allocation reported by mallinfo(arena+hblkhd)
        111270 MiB available memory on the node where the printing process lives
------------------
     ethr =  1.00E-13,  avg # of iterations =  1.0

     total cpu time spent up to now is      120.8 secs

     total energy              =    -512.08856741 Ry
     estimated scf accuracy    <          5.7E-13 Ry

     total magnetization       =     6.00 Bohr mag/cell
     absolute magnetization    =     7.13 Bohr mag/cell

     iteration # 18     ecut=    90.00 Ry     beta= 0.70
     Davidson diagonalization with overlap

---- Real-time Memory Report at c_bands before calling an iterative solver
           205 MiB given to the printing process from OS
             0 MiB allocation reported by mallinfo(arena+hblkhd)
        111239 MiB available memory on the node where the printing process lives
------------------
     ethr =  1.00E-13,  avg # of iterations =  1.0
 
     Magnetic moment per site  (integrated on atomic sphere of radius R)
     atom   1 (R=0.164)  charge= 12.4364  magn=  2.9403
     atom   2 (R=0.164)  charge= 12.4364  magn=  2.9403
     atom   3 (R=0.164)  charge=  4.1207  magn= -0.0522
     atom   4 (R=0.164)  charge=  4.1207  magn= -0.0522
     atom   5 (R=0.164)  charge=  4.1207  magn= -0.0522
     atom   6 (R=0.164)  charge=  4.1208  magn= -0.0522
     atom   7 (R=0.164)  charge=  4.1208  magn= -0.0522
     atom   8 (R=0.164)  charge=  4.1208  magn= -0.0522

     total cpu time spent up to now is      125.2 secs

     End of self-consistent calculation

 ------ SPIN UP ------------


          k = 0.0000 0.0000 0.0000 ( 52593 PWs)   bands (ev):

   -77.4067 -77.4065 -49.1409 -49.1400 -49.1314 -49.1314 -49.1285 -49.1285
   -18.4876 -17.7429 -17.4392 -17.4392 -17.3452 -17.3452 -10.1009  -9.5993
    -9.0569  -9.0569  -9.0104  -9.0104  -8.6898  -8.2618  -8.2618  -8.2296
    -7.8281  -7.8281  -7.3842  -6.6895  -6.6895  -6.6538  -6.4589  -6.1669
    -6.1669  -6.1100  -6.0321  -6.0321  -5.6175  -5.6175  -4.4435  -4.4435
    -4.0114  -4.0114

     occupation numbers 
     1.0000   1.0000   1.0000   1.0000   1.0000   1.0000   1.0000   1.0000
     1.0000   1.0000   1.0000   1.0000   1.0000   1.0000   1.0000   1.0000
     1.0000   1.0000   1.0000   1.0000   1.0000   1.0000   1.0000   1.0000
     1.0000   1.0000   1.0000   1.0000   1.0000   1.0000   1.0000   1.0000
     1.0000   1.0000   1.0000   1.0000   1.0000   1.0000   0.0000   0.0000
     0.0000   0.0000

          k = 0.0000 0.1925 0.0000 ( 52592 PWs)   bands (ev):

   -77.4067 -77.4065 -49.1409 -49.1400 -49.1315 -49.1313 -49.1287 -49.1285
   -18.4292 -17.7100 -17.5191 -17.4694 -17.3528 -17.3518 -10.0962  -9.5884
    -9.1075  -9.0913  -9.0649  -8.8705  -8.5386  -8.3412  -8.2766  -7.9393
    -7.8478  -7.6955  -7.3347  -6.8866  -6.8480  -6.5813  -6.4492  -6.3630
    -6.2523  -6.0569  -5.9932  -5.9898  -5.6992  -5.5820  -4.4384  -4.4125
    -4.2053  -4.0603

     occupation numbers 
     1.0000   1.0000   1.0000   1.0000   1.0000   1.0000   1.0000   1.0000
     1.0000   1.0000   1.0000   1.0000   1.0000   1.0000   1.0000   1.0000
     1.0000   1.0000   1.0000   1.0000   1.0000   1.0000   1.0000   1.0000
     1.0000   1.0000   1.0000   1.0000   1.0000   1.0000   1.0000   1.0000
     1.0000   1.0000   1.0000   1.0000   1.0000   1.0000   0.0000   0.0000
     0.0000   0.0000

          k = 0.0000 0.3849 0.0000 ( 52554 PWs)   bands (ev):

   -77.4066 -77.4065 -49.1407 -49.1402 -49.1316 -49.1309 -49.1291 -49.1284
   -18.2690 -17.7147 -17.6226 -17.5170 -17.3999 -17.3751 -10.0794  -9.5221
    -9.2064  -9.0770  -8.9384  -8.5912  -8.5796  -8.2953  -8.2384  -7.9368
    -7.5669  -7.4613  -7.4201  -7.1885  -6.9747  -6.8803  -6.3985  -6.3405
    -6.2684  -6.0273  -6.0055  -5.9787  -5.7792  -5.5747  -4.4220  -4.3474
    -4.3164  -4.2076

     occupation numbers 
     1.0000   1.0000   1.0000   1.0000   1.0000   1.0000   1.0000   1.0000
     1.0000   1.0000   1.0000   1.0000   1.0000   1.0000   1.0000   1.0000
     1.0000   1.0000   1.0000   1.0000   1.0000   1.0000   1.0000   1.0000
     1.0000   1.0000   1.0000   1.0000   1.0000   1.0000   1.0000   1.0000
     1.0000   1.0000   1.0000   1.0000   1.0000   1.0000   0.0000   0.0000
     0.0000   0.0000

          k = 0.0000-0.5774 0.0000 ( 52578 PWs)   bands (ev):

   -77.4066 -77.4065 -49.1406 -49.1403 -49.1316 -49.1307 -49.1293 -49.1283
   -18.1125 -17.8879 -17.5374 -17.5346 -17.4719 -17.3871 -10.0853  -9.4265
    -9.2476  -8.9768  -8.7509  -8.6891  -8.5891  -8.2344  -8.0852  -8.0173
    -7.8567  -7.6548  -7.3779  -7.0054  -6.8437  -6.8085  -6.4869  -6.4431
    -6.2898  -6.0584  -6.0037  -5.8906  -5.8105  -5.5974  -4.3818  -4.3531
    -4.3321  -4.2065

     occupation numbers 
     1.0000   1.0000   1.0000   1.0000   1.0000   1.0000   1.0000   1.0000
     1.0000   1.0000   1.0000   1.0000   1.0000   1.0000   1.0000   1.0000
     1.0000   1.0000   1.0000   1.0000   1.0000   1.0000   1.0000   1.0000
     1.0000   1.0000   1.0000   1.0000   1.0000   1.0000   1.0000   1.0000
     1.0000   1.0000   1.0000   1.0000   1.0000   1.0000   0.0000   0.0000
     0.0000   0.0000

          k = 0.1667 0.2887 0.0000 ( 52609 PWs)   bands (ev):

   -77.4067 -77.4065 -49.1408 -49.1401 -49.1316 -49.1310 -49.1290 -49.1284
   -18.3191 -17.6498 -17.6370 -17.5313 -17.3798 -17.3649 -10.0414  -9.5862
    -9.1532  -9.1490  -9.0097  -8.6350  -8.5172  -8.3862  -8.1815  -7.9108
    -7.6150  -7.5386  -7.4295  -7.0402  -6.9230  -6.7969  -6.5913  -6.3392
    -6.2190  -6.0507  -6.0004  -5.9235  -5.7597  -5.5683  -4.4583  -4.3510
    -4.3463  -4.0994

     occupation numbers 
     1.0000   1.0000   1.0000   1.0000   1.0000   1.0000   1.0000   1.0000
     1.0000   1.0000   1.0000   1.0000   1.0000   1.0000   1.0000   1.0000
     1.0000   1.0000   1.0000   1.0000   1.0000   1.0000   1.0000   1.0000
     1.0000   1.0000   1.0000   1.0000   1.0000   1.0000   1.0000   1.0000
     1.0000   1.0000   1.0000   1.0000   1.0000   1.0000   0.0000   0.0000
     0.0000   0.0000

          k = 0.1667 0.4811 0.0000 ( 52543 PWs)   bands (ev):

   -77.4066 -77.4065 -49.1406 -49.1403 -49.1317 -49.1306 -49.1294 -49.1283
   -18.1340 -17.8301 -17.5875 -17.5536 -17.4400 -17.3872  -9.9562  -9.5153
    -9.1907  -9.0797  -8.8097  -8.7664  -8.5665  -8.3153  -8.1874  -7.8952
    -7.7831  -7.4202  -7.3241  -7.1098  -6.8781  -6.8152  -6.6361  -6.4986
    -6.2426  -6.0345  -5.9244  -5.8614  -5.8079  -5.6032  -4.3807  -4.3725
    -4.2649  -4.1571

     occupation numbers 
     1.0000   1.0000   1.0000   1.0000   1.0000   1.0000   1.0000   1.0000
     1.0000   1.0000   1.0000   1.0000   1.0000   1.0000   1.0000   1.0000
     1.0000   1.0000   1.0000   1.0000   1.0000   1.0000   1.0000   1.0000
     1.0000   1.0000   1.0000   1.0000   1.0000   1.0000   1.0000   1.0000
     1.0000   1.0000   1.0000   1.0000   1.0000   1.0000   0.0000   0.0000
     0.0000   0.0000

          k = 0.3333 0.5774 0.0000 ( 52536 PWs)   bands (ev):

   -77.4066 -77.4066 -49.1404 -49.1404 -49.1317 -49.1300 -49.1300 -49.1282
   -17.9652 -17.9652 -17.6504 -17.4814 -17.4814 -17.4069  -9.6622  -9.6622
    -9.1597  -9.0276  -9.0276  -8.6094  -8.6094  -8.5502  -8.2880  -7.9354
    -7.3375  -7.3375  -7.3097  -7.1215  -7.1215  -6.7427  -6.6464  -6.6464
    -6.2448  -6.0175  -5.8540  -5.8540  -5.6949  -5.6949  -4.3906  -4.2774
    -4.2774  -4.0675

     occupation numbers 
     1.0000   1.0000   1.0000   1.0000   1.0000   1.0000   1.0000   1.0000
     1.0000   1.0000   1.0000   1.0000   1.0000   1.0000   1.0000   1.0000
     1.0000   1.0000   1.0000   1.0000   1.0000   1.0000   1.0000   1.0000
     1.0000   1.0000   1.0000   1.0000   1.0000   1.0000   1.0000   1.0000
     1.0000   1.0000   1.0000   1.0000   1.0000   1.0000   0.0000   0.0000
     0.0000   0.0000

 ------ SPIN DOWN ----------


          k = 0.0000 0.0000 0.0000 ( 52593 PWs)   bands (ev):

   -74.4676 -74.4673 -46.2203 -46.2190 -46.1904 -46.1904 -46.1866 -46.1866
   -18.4713 -17.7632 -17.4557 -17.4557 -17.3621 -17.3621  -9.8467  -9.3827
    -8.8941  -8.8941  -8.7450  -8.7450  -8.6105  -8.0357  -7.6350  -7.6350
    -7.3458  -7.3458  -7.3457  -6.6625  -6.3116  -6.3116  -5.7745  -5.7745
    -3.7958  -3.7865  -3.7865  -3.7093  -3.4517  -3.4517  -2.9129  -2.9129
    -2.6412  -2.6412

     occupation numbers 
     1.0000   1.0000   1.0000   1.0000   1.0000   1.0000   1.0000   1.0000
     1.0000   1.0000   1.0000   1.0000   1.0000   1.0000   1.0000   1.0000
     1.0000   1.0000   1.0000   1.0000   1.0000   1.0000   1.0000   1.0000
     1.0000   1.0000   1.0000   1.0000   1.0000   1.0000   1.0000   1.0000
     0.0000   0.0000   0.0000   0.0000   0.0000   0.0000   0.0000   0.0000
     0.0000   0.0000

          k = 0.0000 0.1925 0.0000 ( 52592 PWs)   bands (ev):

   -74.4676 -74.4673 -46.2202 -46.2190 -46.1905 -46.1902 -46.1868 -46.1866
   -18.4141 -17.7301 -17.5330 -17.4863 -17.3690 -17.3687  -9.8560  -9.3722
    -8.9692  -8.9311  -8.8086  -8.6829  -8.2363  -7.7794  -7.7173  -7.6803
    -7.3803  -7.3111  -7.2119  -6.6741  -6.3953  -6.3045  -6.2188  -5.8923
    -3.8558  -3.7206  -3.7113  -3.6042  -3.4797  -3.4752  -2.9232  -2.9123
    -2.7672  -2.6734

     occupation numbers 
     1.0000   1.0000   1.0000   1.0000   1.0000   1.0000   1.0000   1.0000
     1.0000   1.0000   1.0000   1.0000   1.0000   1.0000   1.0000   1.0000
     1.0000   1.0000   1.0000   1.0000   1.0000   1.0000   1.0000   1.0000
     1.0000   1.0000   1.0000   1.0000   1.0000   1.0000   1.0000   1.0000
     0.0000   0.0000   0.0000   0.0000   0.0000   0.0000   0.0000   0.0000
     0.0000   0.0000

          k = 0.0000 0.3849 0.0000 ( 52554 PWs)   bands (ev):

   -74.4675 -74.4674 -46.2200 -46.2192 -46.1906 -46.1898 -46.1873 -46.1864
   -18.2574 -17.7223 -17.6423 -17.5344 -17.4171 -17.3900  -9.8565  -9.3031
    -9.1153  -8.8715  -8.6881  -8.3336  -8.1404  -7.7739  -7.7663  -7.4601
    -7.3016  -7.1494  -7.1233  -6.9871  -6.7366  -6.4604  -6.2868  -6.0393
    -3.9043  -3.8464  -3.6279  -3.5127  -3.5109  -3.4195  -2.9578  -2.9075
    -2.7961  -2.7292

     occupation numbers 
     1.0000   1.0000   1.0000   1.0000   1.0000   1.0000   1.0000   1.0000
     1.0000   1.0000   1.0000   1.0000   1.0000   1.0000   1.0000   1.0000
     1.0000   1.0000   1.0000   1.0000   1.0000   1.0000   1.0000   1.0000
     1.0000   1.0000   1.0000   1.0000   1.0000   1.0000   1.0000   1.0000
     0.0000   0.0000   0.0000   0.0000   0.0000   0.0000   0.0000   0.0000
     0.0000   0.0000

          k = 0.0000-0.5774 0.0000 ( 52578 PWs)   bands (ev):

   -74.4675 -74.4674 -46.2199 -46.2194 -46.1907 -46.1894 -46.1876 -46.1864
   -18.1032 -17.8917 -17.5551 -17.5543 -17.4890 -17.4015  -9.8674  -9.2070
    -9.1679  -8.6302  -8.5114  -8.4955  -8.1546  -7.8594  -7.6660  -7.4802
    -7.4795  -7.3133  -7.0123  -6.7848  -6.7390  -6.5518  -6.3411  -5.9989
    -3.9641  -3.9408  -3.6390  -3.5137  -3.4914  -3.3764  -2.9843  -2.8621
    -2.7471  -2.7460

     occupation numbers 
     1.0000   1.0000   1.0000   1.0000   1.0000   1.0000   1.0000   1.0000
     1.0000   1.0000   1.0000   1.0000   1.0000   1.0000   1.0000   1.0000
     1.0000   1.0000   1.0000   1.0000   1.0000   1.0000   1.0000   1.0000
     1.0000   1.0000   1.0000   1.0000   1.0000   1.0000   1.0000   1.0000
     0.0000   0.0000   0.0000   0.0000   0.0000   0.0000   0.0000   0.0000
     0.0000   0.0000

          k = 0.1667 0.2887 0.0000 ( 52609 PWs)   bands (ev):

   -74.4676 -74.4674 -46.2201 -46.2192 -46.1906 -46.1899 -46.1872 -46.1864
   -18.3065 -17.6696 -17.6462 -17.5483 -17.3968 -17.3808  -9.8139  -9.3689
    -9.0331  -8.9829  -8.7677  -8.3855  -8.0472  -7.8731  -7.7171  -7.5142
    -7.2951  -7.2123  -7.1314  -6.9500  -6.5003  -6.4486  -6.3040  -6.0793
    -3.8407  -3.8307  -3.6433  -3.5603  -3.4652  -3.4627  -2.9874  -2.8551
    -2.8123  -2.7059

     occupation numbers 
     1.0000   1.0000   1.0000   1.0000   1.0000   1.0000   1.0000   1.0000
     1.0000   1.0000   1.0000   1.0000   1.0000   1.0000   1.0000   1.0000
     1.0000   1.0000   1.0000   1.0000   1.0000   1.0000   1.0000   1.0000
     1.0000   1.0000   1.0000   1.0000   1.0000   1.0000   1.0000   1.0000
     0.0000   0.0000   0.0000   0.0000   0.0000   0.0000   0.0000   0.0000
     0.0000   0.0000

          k = 0.1667 0.4811 0.0000 ( 52543 PWs)   bands (ev):

   -74.4675 -74.4674 -46.2199 -46.2194 -46.1908 -46.1893 -46.1878 -46.1863
   -18.1254 -17.8330 -17.6043 -17.5729 -17.4577 -17.4026  -9.7379  -9.2965
    -9.0766  -8.8568  -8.5625  -8.4657  -8.2191  -7.8499  -7.6722  -7.5604
    -7.3967  -7.1868  -6.9407  -6.7935  -6.6885  -6.5161  -6.2922  -6.1296
    -3.9337  -3.8906  -3.6584  -3.6112  -3.4324  -3.3991  -2.9237  -2.8373
    -2.7570  -2.7417

     occupation numbers 
     1.0000   1.0000   1.0000   1.0000   1.0000   1.0000   1.0000   1.0000
     1.0000   1.0000   1.0000   1.0000   1.0000   1.0000   1.0000   1.0000
     1.0000   1.0000   1.0000   1.0000   1.0000   1.0000   1.0000   1.0000
     1.0000   1.0000   1.0000   1.0000   1.0000   1.0000   1.0000   1.0000
     0.0000   0.0000   0.0000   0.0000   0.0000   0.0000   0.0000   0.0000
     0.0000   0.0000

          k = 0.3333 0.5774 0.0000 ( 52536 PWs)   bands (ev):

   -74.4675 -74.4675 -46.2196 -46.2196 -46.1908 -46.1885 -46.1885 -46.1862
   -17.9614 -17.9614 -17.6677 -17.5001 -17.5001 -17.4222  -9.4464  -9.4464
    -8.8985  -8.8610  -8.8610  -8.3618  -8.2311  -8.2311  -7.6626  -7.6197
    -7.0878  -7.0318  -7.0318  -6.6317  -6.6317  -6.5862  -6.2505  -6.2505
    -3.8987  -3.8987  -3.7691  -3.6290  -3.4034  -3.4034  -2.8304  -2.7936
    -2.7936  -2.6868

     occupation numbers 
     1.0000   1.0000   1.0000   1.0000   1.0000   1.0000   1.0000   1.0000
     1.0000   1.0000   1.0000   1.0000   1.0000   1.0000   1.0000   1.0000
     1.0000   1.0000   1.0000   1.0000   1.0000   1.0000   1.0000   1.0000
     1.0000   1.0000   1.0000   1.0000   1.0000   1.0000   1.0000   1.0000
     0.0000   0.0000   0.0000   0.0000   0.0000   0.0000   0.0000   0.0000
     0.0000   0.0000

     the Fermi energy is    -4.9346 ev

!    total energy              =    -512.08856741 Ry
     estimated scf accuracy    <          3.9E-14 Ry
     smearing contrib. (-TS)   =      -0.00000000 Ry
     internal energy E=F+TS    =    -512.08856741 Ry

     The total energy is F=E-TS. E is the sum of the following terms:
     one-electron contribution =   -1703.12208188 Ry
     hartree contribution      =     845.80892188 Ry
     xc contribution           =     -99.95649781 Ry
     ewald contribution        =     445.18109040 Ry

     total magnetization       =     6.00 Bohr mag/cell
     absolute magnetization    =     7.13 Bohr mag/cell

     convergence has been achieved in  18 iterations

     Writing all to output data dir ./cri3_6x6x1.save/
 
     init_run     :      2.28s CPU      2.46s WALL (       1 calls)
     electrons    :    119.84s CPU    122.81s WALL (       1 calls)

     Called by init_run:
     wfcinit      :      1.15s CPU      1.25s WALL (       1 calls)
     wfcinit:atom :      0.02s CPU      0.03s WALL (      14 calls)
     wfcinit:wfcr :      1.02s CPU      1.11s WALL (      14 calls)
     potinit      :      0.18s CPU      0.18s WALL (       1 calls)
     hinit0       :      0.46s CPU      0.52s WALL (       1 calls)

     Called by electrons:
     c_bands      :    105.68s CPU    108.19s WALL (      18 calls)
     sum_band     :     13.03s CPU     13.30s WALL (      18 calls)
     v_of_rho     :      0.30s CPU      0.31s WALL (      19 calls)
     v_h          :      0.07s CPU      0.07s WALL (      19 calls)
     v_xc         :      0.23s CPU      0.23s WALL (      19 calls)
     mix_rho      :      0.71s CPU      0.72s WALL (      18 calls)

     Called by c_bands:
     init_us_2    :      2.49s CPU      2.53s WALL (     518 calls)
     init_us_2:cp :      2.48s CPU      2.53s WALL (     518 calls)
     cegterg      :     94.39s CPU     96.77s WALL (     254 calls)

     Called by sum_band:
     sum_band:wei :      0.00s CPU      0.01s WALL (      18 calls)
     sum_band:loo :     12.73s CPU     12.99s WALL (      18 calls)
     sum_band:buf :      0.35s CPU      0.36s WALL (     252 calls)
     sum_band:ini :      1.22s CPU      1.24s WALL (     252 calls)

     Called by *egterg:
     cdiaghg      :      5.18s CPU      6.12s WALL (    1422 calls)
     cegterg:over :      7.09s CPU      7.19s WALL (    1170 calls)
     cegterg:upda :      6.55s CPU      6.67s WALL (    1170 calls)
     cegterg:last :      7.35s CPU      7.46s WALL (     665 calls)
     cdiaghg:chol :      0.41s CPU      0.42s WALL (    1422 calls)
     cdiaghg:inve :      0.15s CPU      0.16s WALL (    1422 calls)
     cdiaghg:para :      0.39s CPU      0.41s WALL (    2844 calls)
     h_psi        :     66.14s CPU     67.33s WALL (    1438 calls)
     g_psi        :      0.39s CPU      0.40s WALL (    1170 calls)

     Called by h_psi:
     h_psi:calbec :      5.77s CPU      5.85s WALL (    1438 calls)
     vloc_psi     :     53.69s CPU     54.73s WALL (    1438 calls)
     add_vuspsi   :      5.79s CPU      5.85s WALL (    1438 calls)

     General routines
     calbec       :      5.76s CPU      5.84s WALL (    1438 calls)
     fft          :      0.22s CPU      0.26s WALL (      93 calls)
     ffts         :      0.06s CPU      0.07s WALL (      36 calls)
     fftw         :     50.46s CPU     51.47s WALL (   78110 calls)
 
     Parallel routines
 
     PWSCF        :   2m 2.66s CPU   2m11.64s WALL

 
   This run was terminated on:  14:43: 7  10Jan2024            

=------------------------------------------------------------------------------=
   JOB DONE.
=------------------------------------------------------------------------------=
