
     Program PWSCF v.7.0 starts on 16Jan2024 at 10:19:39 

     This program is part of the open-source Quantum ESPRESSO suite
     for quantum simulation of materials; please cite
         "P. Giannozzi et al., J. Phys.:Condens. Matter 21 395502 (2009);
         "P. Giannozzi et al., J. Phys.:Condens. Matter 29 465901 (2017);
         "P. Giannozzi et al., J. Chem. Phys. 152 154105 (2020);
          URL http://www.quantum-espresso.org", 
     in publications or presentations arising from this work. More details at
     http://www.quantum-espresso.org/quote

     Parallel version (MPI), running on    12 processors

     MPI processes distributed on     1 nodes
     R & G space division:  proc/nbgrp/npool/nimage =      12
     119408 MiB available memory on the printing compute node when the environment starts
 
     Reading input from cri3-exp-nosoc_90Ry_k16x16x1.scf.in

     Current dimensions of program PWSCF are:
     Max number of different atomic species (ntypx) = 10
     Max number of k-points (npk) =  40000
     Max angular momentum in pseudopotentials (lmaxx) =  4

     Subspace diagonalization in iterative solution of the eigenvalue problem:
     one sub-group per band group will be used
     scalapack distributed-memory algorithm (size of sub-group:  3*  3 procs)

 
     Parallelization info
     --------------------
     sticks:   dense  smooth     PW     G-vecs:    dense   smooth      PW
     Min         348     348     92                35048    35048    4812
     Max         349     349     93                35057    35057    4819
     Sum        4177    4177   1111               420595   420595   57791
 
     Using Slab Decomposition
 


     bravais-lattice index     =            4
     lattice parameter (alat)  =      12.9767  a.u.
     unit-cell volume          =    3645.8815 (a.u.)^3
     number of atoms/cell      =            8
     number of atomic types    =            2
     number of electrons       =       112.00
     number of Kohn-Sham states=           67
     kinetic-energy cutoff     =      90.0000  Ry
     charge density cutoff     =     360.0000  Ry
     scf convergence threshold =      1.0E-13
     mixing beta               =       0.7000
     number of iterations used =            8  plain     mixing
     Exchange-correlation= PZ
                           (   1   1   0   0   0   0   0)

     celldm(1)=  12.976749  celldm(2)=   0.000000  celldm(3)=   1.926523
     celldm(4)=   0.000000  celldm(5)=   0.000000  celldm(6)=   0.000000

     crystal axes: (cart. coord. in units of alat)
               a(1) = (   1.000000   0.000000   0.000000 )  
               a(2) = (  -0.500000   0.866025   0.000000 )  
               a(3) = (   0.000000   0.000000   1.926523 )  

     reciprocal axes: (cart. coord. in units 2 pi/alat)
               b(1) = (  1.000000  0.577350  0.000000 )  
               b(2) = (  0.000000  1.154701  0.000000 )  
               b(3) = (  0.000000  0.000000  0.519070 )  


     PseudoPot. # 1 for Cr read from file:
     ./Cr_Alejandro.upf
     MD5 check sum: 19f8874af457815d5c8e16c7b8c57f71
     Pseudo is Norm-conserving + core correction, Zval = 14.0
     Generated using ONCVPSP code by D. R. Hamann
     Using radial grid of 1600 points,  6 beta functions with: 
                l(1) =   0
                l(2) =   0
                l(3) =   1
                l(4) =   1
                l(5) =   2
                l(6) =   2

     PseudoPot. # 2 for Cr read from file:
     ./I_Alejandro.upf
     MD5 check sum: 19f8874af457815d5c8e16c7b8c57f71
     Pseudo is Norm-conserving + core correction, Zval = 14.0
     Generated using ONCVPSP code by D. R. Hamann
     Using radial grid of 1600 points,  6 beta functions with: 
                l(1) =   0
                l(2) =   0
                l(3) =   1
                l(4) =   1
                l(5) =   2
                l(6) =   2

     atomic species   valence    mass     pseudopotential
        Cr            14.00    51.99000     Cr( 1.00)
        I             14.00   126.90000     Cr( 1.00)

     Starting magnetic structure 
     atomic species   magnetization
        Cr           1.000
        I            0.000

     12 Sym. Ops., with inversion, found ( 6 have fractional translation)


                                    s                        frac. trans.

      isym =  1     identity                                     

 cryst.   s( 1) = (     1          0          0      )
                  (     0          1          0      )
                  (     0          0          1      )

 cart.    s( 1) = (  1.0000000  0.0000000  0.0000000 )
                  (  0.0000000  1.0000000  0.0000000 )
                  (  0.0000000  0.0000000  1.0000000 )


      isym =  2     180 deg rotation - cart. axis [0,1,0]        

 cryst.   s( 2) = (    -1          0          0      )
                  (     1          1          0      )
                  (     0          0         -1      )

 cart.    s( 2) = ( -1.0000000  0.0000000  0.0000000 )
                  (  0.0000000  1.0000000  0.0000000 )
                  (  0.0000000  0.0000000 -1.0000000 )


      isym =  3     120 deg rotation - cryst. axis [0,0,1]       

 cryst.   s( 3) = (     0          1          0      )
                  (    -1         -1          0      )
                  (     0          0          1      )

 cart.    s( 3) = ( -0.5000000 -0.8660254  0.0000000 )
                  (  0.8660254 -0.5000000  0.0000000 )
                  (  0.0000000  0.0000000  1.0000000 )


      isym =  4     120 deg rotation - cryst. axis [0,0,-1]      

 cryst.   s( 4) = (    -1         -1          0      )
                  (     1          0          0      )
                  (     0          0          1      )

 cart.    s( 4) = ( -0.5000000  0.8660254  0.0000000 )
                  ( -0.8660254 -0.5000000  0.0000000 )
                  (  0.0000000  0.0000000  1.0000000 )


      isym =  5     180 deg rotation - cryst. axis [1,-1,0]      

 cryst.   s( 5) = (     0         -1          0      )
                  (    -1          0          0      )
                  (     0          0         -1      )

 cart.    s( 5) = (  0.5000000 -0.8660254  0.0000000 )
                  ( -0.8660254 -0.5000000  0.0000000 )
                  (  0.0000000  0.0000000 -1.0000000 )


      isym =  6     180 deg rotation - cryst. axis [2,1,0]       

 cryst.   s( 6) = (     1          1          0      )
                  (     0         -1          0      )
                  (     0          0         -1      )

 cart.    s( 6) = (  0.5000000  0.8660254  0.0000000 )
                  (  0.8660254 -0.5000000  0.0000000 )
                  (  0.0000000  0.0000000 -1.0000000 )


      isym =  7     inversion                                    

 cryst.   s( 7) = (    -1          0          0      )    f =( -0.3333333 )
                  (     0         -1          0      )       (  0.3333333 )
                  (     0          0         -1      )       (  0.0000000 )

 cart.    s( 7) = ( -1.0000000  0.0000000  0.0000000 )    f =( -0.5000000 )
                  (  0.0000000 -1.0000000  0.0000000 )       (  0.2886751 )
                  (  0.0000000  0.0000000 -1.0000000 )       (  0.0000000 )


      isym =  8     inv. 180 deg rotation - cart. axis [0,1,0]   

 cryst.   s( 8) = (     1          0          0      )    f =( -0.3333333 )
                  (    -1         -1          0      )       (  0.3333333 )
                  (     0          0          1      )       (  0.0000000 )

 cart.    s( 8) = (  1.0000000  0.0000000  0.0000000 )    f =( -0.5000000 )
                  (  0.0000000 -1.0000000  0.0000000 )       (  0.2886751 )
                  (  0.0000000  0.0000000  1.0000000 )       (  0.0000000 )


      isym =  9     inv. 120 deg rotation - cryst. axis [0,0,1]  

 cryst.   s( 9) = (     0         -1          0      )    f =( -0.3333333 )
                  (     1          1          0      )       (  0.3333333 )
                  (     0          0         -1      )       (  0.0000000 )

 cart.    s( 9) = (  0.5000000  0.8660254  0.0000000 )    f =( -0.5000000 )
                  ( -0.8660254  0.5000000  0.0000000 )       (  0.2886751 )
                  (  0.0000000  0.0000000 -1.0000000 )       (  0.0000000 )


      isym = 10     inv. 120 deg rotation - cryst. axis [0,0,-1] 

 cryst.   s(10) = (     1          1          0      )    f =( -0.3333333 )
                  (    -1          0          0      )       (  0.3333333 )
                  (     0          0         -1      )       (  0.0000000 )

 cart.    s(10) = (  0.5000000 -0.8660254  0.0000000 )    f =( -0.5000000 )
                  (  0.8660254  0.5000000  0.0000000 )       (  0.2886751 )
                  (  0.0000000  0.0000000 -1.0000000 )       (  0.0000000 )


      isym = 11     inv. 180 deg rotation - cryst. axis [1,-1,0] 

 cryst.   s(11) = (     0          1          0      )    f =( -0.3333333 )
                  (     1          0          0      )       (  0.3333333 )
                  (     0          0          1      )       (  0.0000000 )

 cart.    s(11) = ( -0.5000000  0.8660254  0.0000000 )    f =( -0.5000000 )
                  (  0.8660254  0.5000000  0.0000000 )       (  0.2886751 )
                  (  0.0000000  0.0000000  1.0000000 )       (  0.0000000 )


      isym = 12     inv. 180 deg rotation - cryst. axis [2,1,0]  

 cryst.   s(12) = (    -1         -1          0      )    f =( -0.3333333 )
                  (     0          1          0      )       (  0.3333333 )
                  (     0          0          1      )       (  0.0000000 )

 cart.    s(12) = ( -0.5000000 -0.8660254  0.0000000 )    f =( -0.5000000 )
                  ( -0.8660254  0.5000000  0.0000000 )       (  0.2886751 )
                  (  0.0000000  0.0000000  1.0000000 )       (  0.0000000 )


     point group D_3d (-3m) 
     there are  6 classes
     the character table:

       E     2C3   3C2'  i     2S6   3s_d 
A_1g   1.00  1.00  1.00  1.00  1.00  1.00
A_2g   1.00  1.00 -1.00  1.00  1.00 -1.00
E_g    2.00 -1.00  0.00  2.00 -1.00  0.00
A_1u   1.00  1.00  1.00 -1.00 -1.00 -1.00
A_2u   1.00  1.00 -1.00 -1.00 -1.00  1.00
E_u    2.00 -1.00  0.00 -2.00  1.00  0.00

     the symmetry operations in each class and the name of the first element:

     E        1
          identity                                               
     2C3      3    4
          120 deg rotation - cryst. axis [0,0,1]                 
     3C2'     2    6    5
          180 deg rotation - cart. axis [0,1,0]                  
     i        7
          inversion                                              
     2S6      9   10
          inv. 120 deg rotation - cryst. axis [0,0,1]            
     3s_d     8   12   11
          inv. 180 deg rotation - cart. axis [0,1,0]             

   Cartesian axes

     site n.     atom                  positions (alat units)
         1           Cr  tau(   1) = (   0.0000000   0.0000000   0.0000000  )
         2           Cr  tau(   2) = (   0.0000000   0.5773503   0.0000000  )
         3           I   tau(   3) = (  -0.1753225   0.8510331   0.2277694  )
         4           I   tau(   4) = (   0.3246775   0.5923426   0.2277694  )
         5           I   tau(   5) = (  -0.1493550   0.2886751   0.2277694  )
         6           I   tau(   6) = (  -0.3246775   0.5923426  -0.2277694  )
         7           I   tau(   7) = (   0.1753225   0.8510331  -0.2277694  )
         8           I   tau(   8) = (   0.1493550   0.2886751  -0.2277694  )

   Crystallographic axes

     site n.     atom                  positions (cryst. coord.)
         1           Cr  tau(   1) = (  0.0000000  0.0000000  0.0000000  )
         2           Cr  tau(   2) = (  0.3333333  0.6666667  0.0000000  )
         3           I   tau(   3) = (  0.3160217  0.9826883  0.1182283  )
         4           I   tau(   4) = (  0.6666667  0.6839783  0.1182283  )
         5           I   tau(   5) = (  0.0173117  0.3333333  0.1182283  )
         6           I   tau(   6) = (  0.0173117  0.6839783 -0.1182283  )
         7           I   tau(   7) = (  0.6666667  0.9826883 -0.1182283  )
         8           I   tau(   8) = (  0.3160217  0.3333333 -0.1182283  )

     number of k points=    30  Gaussian smearing, width (Ry)=  0.0050
                       cart. coord. in units 2pi/alat
        k(    1) = (   0.0000000   0.0000000   0.0000000), wk =   0.0039062
        k(    2) = (   0.0000000   0.0721688   0.0000000), wk =   0.0234375
        k(    3) = (   0.0000000   0.1443376   0.0000000), wk =   0.0234375
        k(    4) = (   0.0000000   0.2165064   0.0000000), wk =   0.0234375
        k(    5) = (   0.0000000   0.2886751   0.0000000), wk =   0.0234375
        k(    6) = (   0.0000000   0.3608439   0.0000000), wk =   0.0234375
        k(    7) = (   0.0000000   0.4330127   0.0000000), wk =   0.0234375
        k(    8) = (   0.0000000   0.5051815   0.0000000), wk =   0.0234375
        k(    9) = (   0.0000000  -0.5773503   0.0000000), wk =   0.0117188
        k(   10) = (   0.0625000   0.1082532   0.0000000), wk =   0.0234375
        k(   11) = (   0.0625000   0.1804220   0.0000000), wk =   0.0468750
        k(   12) = (   0.0625000   0.2525907   0.0000000), wk =   0.0468750
        k(   13) = (   0.0625000   0.3247595   0.0000000), wk =   0.0468750
        k(   14) = (   0.0625000   0.3969283   0.0000000), wk =   0.0468750
        k(   15) = (   0.0625000   0.4690971   0.0000000), wk =   0.0468750
        k(   16) = (   0.0625000   0.5412659   0.0000000), wk =   0.0468750
        k(   17) = (   0.1250000   0.2165064   0.0000000), wk =   0.0234375
        k(   18) = (   0.1250000   0.2886751   0.0000000), wk =   0.0468750
        k(   19) = (   0.1250000   0.3608439   0.0000000), wk =   0.0468750
        k(   20) = (   0.1250000   0.4330127   0.0000000), wk =   0.0468750
        k(   21) = (   0.1250000   0.5051815   0.0000000), wk =   0.0468750
        k(   22) = (   0.1250000   0.5773503   0.0000000), wk =   0.0234375
        k(   23) = (   0.1875000   0.3247595   0.0000000), wk =   0.0234375
        k(   24) = (   0.1875000   0.3969283   0.0000000), wk =   0.0468750
        k(   25) = (   0.1875000   0.4690971   0.0000000), wk =   0.0468750
        k(   26) = (   0.1875000   0.5412659   0.0000000), wk =   0.0468750
        k(   27) = (   0.2500000   0.4330127   0.0000000), wk =   0.0234375
        k(   28) = (   0.2500000   0.5051815   0.0000000), wk =   0.0468750
        k(   29) = (   0.2500000   0.5773503   0.0000000), wk =   0.0234375
        k(   30) = (   0.3125000   0.5412659   0.0000000), wk =   0.0234375

                       cryst. coord.
        k(    1) = (   0.0000000   0.0000000   0.0000000), wk =   0.0039062
        k(    2) = (   0.0000000   0.0625000   0.0000000), wk =   0.0234375
        k(    3) = (   0.0000000   0.1250000   0.0000000), wk =   0.0234375
        k(    4) = (   0.0000000   0.1875000   0.0000000), wk =   0.0234375
        k(    5) = (   0.0000000   0.2500000   0.0000000), wk =   0.0234375
        k(    6) = (   0.0000000   0.3125000   0.0000000), wk =   0.0234375
        k(    7) = (   0.0000000   0.3750000   0.0000000), wk =   0.0234375
        k(    8) = (   0.0000000   0.4375000   0.0000000), wk =   0.0234375
        k(    9) = (   0.0000000  -0.5000000   0.0000000), wk =   0.0117188
        k(   10) = (   0.0625000   0.0625000   0.0000000), wk =   0.0234375
        k(   11) = (   0.0625000   0.1250000   0.0000000), wk =   0.0468750
        k(   12) = (   0.0625000   0.1875000   0.0000000), wk =   0.0468750
        k(   13) = (   0.0625000   0.2500000   0.0000000), wk =   0.0468750
        k(   14) = (   0.0625000   0.3125000   0.0000000), wk =   0.0468750
        k(   15) = (   0.0625000   0.3750000   0.0000000), wk =   0.0468750
        k(   16) = (   0.0625000   0.4375000   0.0000000), wk =   0.0468750
        k(   17) = (   0.1250000   0.1250000   0.0000000), wk =   0.0234375
        k(   18) = (   0.1250000   0.1875000   0.0000000), wk =   0.0468750
        k(   19) = (   0.1250000   0.2500000   0.0000000), wk =   0.0468750
        k(   20) = (   0.1250000   0.3125000   0.0000000), wk =   0.0468750
        k(   21) = (   0.1250000   0.3750000   0.0000000), wk =   0.0468750
        k(   22) = (   0.1250000   0.4375000   0.0000000), wk =   0.0234375
        k(   23) = (   0.1875000   0.1875000   0.0000000), wk =   0.0234375
        k(   24) = (   0.1875000   0.2500000   0.0000000), wk =   0.0468750
        k(   25) = (   0.1875000   0.3125000   0.0000000), wk =   0.0468750
        k(   26) = (   0.1875000   0.3750000   0.0000000), wk =   0.0468750
        k(   27) = (   0.2500000   0.2500000   0.0000000), wk =   0.0234375
        k(   28) = (   0.2500000   0.3125000   0.0000000), wk =   0.0468750
        k(   29) = (   0.2500000   0.3750000   0.0000000), wk =   0.0234375
        k(   30) = (   0.3125000   0.3125000   0.0000000), wk =   0.0234375

     Dense  grid:   420595 G-vectors     FFT dimensions: (  81,  81, 160)

     Dynamical RAM for                 wfc:       4.48 MB

     Dynamical RAM for     wfc (w. buffer):     273.15 MB

     Dynamical RAM for           str. fact:       1.07 MB

     Dynamical RAM for           local pot:       0.00 MB

     Dynamical RAM for          nlocal pot:       9.62 MB

     Dynamical RAM for                qrad:       3.05 MB

     Dynamical RAM for          rho,v,vnew:       7.41 MB

     Dynamical RAM for               rhoin:       2.47 MB

     Dynamical RAM for            rho*nmix:      17.11 MB

     Dynamical RAM for           G-vectors:       2.27 MB

     Dynamical RAM for          h,s,v(r/c):       0.09 MB

     Dynamical RAM for          <psi|beta>:       0.15 MB

     Dynamical RAM for                 psi:       8.96 MB

     Dynamical RAM for                hpsi:       8.96 MB

     Dynamical RAM for      wfcinit/wfcrot:      10.84 MB

     Estimated static dynamical RAM per process >     304.85 MB

     Estimated max dynamical RAM per process >     340.12 MB

     Estimated total dynamical RAM >       3.99 GB
 ----2D----2D----2D----2D----2D----2D----2D----2D----2D----2D----2D----2D
  The code is running with the 2D cutoff
  Please refer to:
  Sohier, T., Calandra, M., & Mauri, F. (2017), 
  Density functional perturbation theory for gated two-dimensional heterostructu
 res:
  Theoretical developments and application to flexural phonons in graphene.
  Physical Review B, 96(7), 75448. https://doi.org/10.1103/PhysRevB.96.075448
 ----2D----2D----2D----2D----2D----2D----2D----2D----2D----2D----2D----2D
     Generating pointlists ...
     new r_m :   0.1637 (alat units)  2.1245 (a.u.) for type    1
     new r_m :   0.1637 (alat units)  2.1245 (a.u.) for type    2

     Initial potential from superposition of free atoms

     starting charge     111.9912, renormalised to     112.0000

     negative rho (up, down):  1.761E-07 1.371E-07
     Starting wfcs are   80 randomized atomic wfcs

     total cpu time spent up to now is       27.1 secs

     Self-consistent Calculation

     iteration #  1     ecut=    90.00 Ry     beta= 0.70
     Davidson diagonalization with overlap

---- Real-time Memory Report at c_bands before calling an iterative solver
           449 MiB given to the printing process from OS
             0 MiB allocation reported by mallinfo(arena+hblkhd)
        108021 MiB available memory on the node where the printing process lives
------------------
     c_bands:  3 eigenvalues not converged
     c_bands:  3 eigenvalues not converged
     c_bands:  5 eigenvalues not converged
     c_bands:  4 eigenvalues not converged
     c_bands:  3 eigenvalues not converged
     c_bands:  1 eigenvalues not converged
     c_bands:  1 eigenvalues not converged
     c_bands:  5 eigenvalues not converged
     c_bands:  1 eigenvalues not converged
     c_bands:  1 eigenvalues not converged
     c_bands:  1 eigenvalues not converged
     c_bands:  2 eigenvalues not converged
     c_bands:  2 eigenvalues not converged
     c_bands:  2 eigenvalues not converged
     c_bands:  1 eigenvalues not converged
     c_bands:  1 eigenvalues not converged
     c_bands:  1 eigenvalues not converged
     ethr =  5.00E-06,  avg # of iterations = 19.1

     total cpu time spent up to now is      415.1 secs

     total energy              =   -1415.77209255 Ry
     estimated scf accuracy    <       8.48904234 Ry

     total magnetization       =    10.10 Bohr mag/cell
     absolute magnetization    =    11.55 Bohr mag/cell

     iteration #  2     ecut=    90.00 Ry     beta= 0.70
     Davidson diagonalization with overlap

---- Real-time Memory Report at c_bands before calling an iterative solver
           487 MiB given to the printing process from OS
             0 MiB allocation reported by mallinfo(arena+hblkhd)
        106412 MiB available memory on the node where the printing process lives
------------------
     ethr =  7.58E-03,  avg # of iterations =  7.6

     total cpu time spent up to now is      579.1 secs

     total energy              =   -1413.77414697 Ry
     estimated scf accuracy    <      85.65914459 Ry

     total magnetization       =    -2.73 Bohr mag/cell
     absolute magnetization    =     3.57 Bohr mag/cell

     iteration #  3     ecut=    90.00 Ry     beta= 0.70
     Davidson diagonalization with overlap

---- Real-time Memory Report at c_bands before calling an iterative solver
           490 MiB given to the printing process from OS
             0 MiB allocation reported by mallinfo(arena+hblkhd)
        106254 MiB available memory on the node where the printing process lives
------------------
     ethr =  7.58E-03,  avg # of iterations =  7.6

     total cpu time spent up to now is      722.9 secs

     total energy              =   -1419.23376786 Ry
     estimated scf accuracy    <       0.85547335 Ry

     total magnetization       =     2.59 Bohr mag/cell
     absolute magnetization    =    14.21 Bohr mag/cell

     iteration #  4     ecut=    90.00 Ry     beta= 0.70
     Davidson diagonalization with overlap

---- Real-time Memory Report at c_bands before calling an iterative solver
           493 MiB given to the printing process from OS
             0 MiB allocation reported by mallinfo(arena+hblkhd)
        106127 MiB available memory on the node where the printing process lives
------------------
     ethr =  7.64E-04,  avg # of iterations =  7.8

     total cpu time spent up to now is      874.1 secs

     total energy              =   -1419.95207368 Ry
     estimated scf accuracy    <       1.96171000 Ry

     total magnetization       =    -8.05 Bohr mag/cell
     absolute magnetization    =    22.87 Bohr mag/cell

     iteration #  5     ecut=    90.00 Ry     beta= 0.70
     Davidson diagonalization with overlap

---- Real-time Memory Report at c_bands before calling an iterative solver
           496 MiB given to the printing process from OS
             0 MiB allocation reported by mallinfo(arena+hblkhd)
        106015 MiB available memory on the node where the printing process lives
------------------
     ethr =  7.64E-04,  avg # of iterations =  2.8

     total cpu time spent up to now is      983.8 secs

     total energy              =   -1420.29481432 Ry
     estimated scf accuracy    <       0.54791421 Ry

     total magnetization       =   -13.97 Bohr mag/cell
     absolute magnetization    =    27.00 Bohr mag/cell

     iteration #  6     ecut=    90.00 Ry     beta= 0.70
     Davidson diagonalization with overlap

---- Real-time Memory Report at c_bands before calling an iterative solver
           498 MiB given to the printing process from OS
             0 MiB allocation reported by mallinfo(arena+hblkhd)
        105976 MiB available memory on the node where the printing process lives
------------------
     ethr =  4.89E-04,  avg # of iterations =  1.4

     total cpu time spent up to now is     1074.7 secs

     total energy              =   -1420.15227011 Ry
     estimated scf accuracy    <       0.42349493 Ry

     total magnetization       =   -16.19 Bohr mag/cell
     absolute magnetization    =    29.61 Bohr mag/cell

     iteration #  7     ecut=    90.00 Ry     beta= 0.70
     Davidson diagonalization with overlap

---- Real-time Memory Report at c_bands before calling an iterative solver
           500 MiB given to the printing process from OS
             0 MiB allocation reported by mallinfo(arena+hblkhd)
        105900 MiB available memory on the node where the printing process lives
------------------
     ethr =  3.78E-04,  avg # of iterations =  1.4

     negative rho (up, down):  5.007E-07 1.360E-06

     total cpu time spent up to now is     1162.9 secs

     total energy              =   -1420.36490084 Ry
     estimated scf accuracy    <       0.65747267 Ry

     total magnetization       =   -14.08 Bohr mag/cell
     absolute magnetization    =    27.98 Bohr mag/cell

     iteration #  8     ecut=    90.00 Ry     beta= 0.70
     Davidson diagonalization with overlap

---- Real-time Memory Report at c_bands before calling an iterative solver
           502 MiB given to the printing process from OS
             0 MiB allocation reported by mallinfo(arena+hblkhd)
        105844 MiB available memory on the node where the printing process lives
------------------
     ethr =  3.78E-04,  avg # of iterations =  5.5

     negative rho (up, down):  1.556E-05 2.432E-10

     total cpu time spent up to now is     1300.4 secs

     total energy              =   -1420.66330566 Ry
     estimated scf accuracy    <       0.53754637 Ry

     total magnetization       =   -20.12 Bohr mag/cell
     absolute magnetization    =    34.35 Bohr mag/cell

     iteration #  9     ecut=    90.00 Ry     beta= 0.70
     Davidson diagonalization with overlap

---- Real-time Memory Report at c_bands before calling an iterative solver
           505 MiB given to the printing process from OS
             0 MiB allocation reported by mallinfo(arena+hblkhd)
        105789 MiB available memory on the node where the printing process lives
------------------
     ethr =  3.78E-04,  avg # of iterations =  2.7

     negative rho (up, down):  5.264E-07 0.000E+00

     total cpu time spent up to now is     1396.0 secs

     total energy              =   -1420.77433517 Ry
     estimated scf accuracy    <       0.13622644 Ry

     total magnetization       =   -20.61 Bohr mag/cell
     absolute magnetization    =    33.93 Bohr mag/cell

     iteration # 10     ecut=    90.00 Ry     beta= 0.70
     Davidson diagonalization with overlap

---- Real-time Memory Report at c_bands before calling an iterative solver
           507 MiB given to the printing process from OS
             0 MiB allocation reported by mallinfo(arena+hblkhd)
        105730 MiB available memory on the node where the printing process lives
------------------
     c_bands:  1 eigenvalues not converged
     c_bands:  1 eigenvalues not converged
     ethr =  1.22E-04,  avg # of iterations =  6.8

     total cpu time spent up to now is     1482.7 secs

     total energy              =   -1420.79551568 Ry
     estimated scf accuracy    <       0.02143370 Ry

     total magnetization       =   -20.39 Bohr mag/cell
     absolute magnetization    =    33.70 Bohr mag/cell

     iteration # 11     ecut=    90.00 Ry     beta= 0.70
     Davidson diagonalization with overlap

---- Real-time Memory Report at c_bands before calling an iterative solver
           508 MiB given to the printing process from OS
             0 MiB allocation reported by mallinfo(arena+hblkhd)
        107591 MiB available memory on the node where the printing process lives
------------------
     c_bands:  3 eigenvalues not converged
     c_bands:  2 eigenvalues not converged
     c_bands:  2 eigenvalues not converged
     c_bands:  1 eigenvalues not converged
     c_bands:  2 eigenvalues not converged
     c_bands:  3 eigenvalues not converged
     c_bands:  1 eigenvalues not converged
     c_bands:  2 eigenvalues not converged
     c_bands:  2 eigenvalues not converged
     c_bands:  2 eigenvalues not converged
     c_bands:  1 eigenvalues not converged
     c_bands:  4 eigenvalues not converged
     c_bands:  3 eigenvalues not converged
     c_bands:  4 eigenvalues not converged
     c_bands:  1 eigenvalues not converged
     c_bands:  3 eigenvalues not converged
     ethr =  1.91E-05,  avg # of iterations = 11.3

     total cpu time spent up to now is     1584.9 secs

     total energy              =   -1420.80327011 Ry
     estimated scf accuracy    <       0.00954214 Ry

     total magnetization       =   -20.29 Bohr mag/cell
     absolute magnetization    =    33.87 Bohr mag/cell

     iteration # 12     ecut=    90.00 Ry     beta= 0.70
     Davidson diagonalization with overlap

---- Real-time Memory Report at c_bands before calling an iterative solver
           508 MiB given to the printing process from OS
             0 MiB allocation reported by mallinfo(arena+hblkhd)
        107575 MiB available memory on the node where the printing process lives
------------------
     c_bands:  1 eigenvalues not converged
     c_bands:  1 eigenvalues not converged
     c_bands:  1 eigenvalues not converged
     c_bands:  1 eigenvalues not converged
     c_bands:  1 eigenvalues not converged
     c_bands:  2 eigenvalues not converged
     c_bands:  2 eigenvalues not converged
     c_bands:  3 eigenvalues not converged
     c_bands:  1 eigenvalues not converged
     c_bands:  2 eigenvalues not converged
     c_bands:  1 eigenvalues not converged
     c_bands:  3 eigenvalues not converged
     c_bands:  2 eigenvalues not converged
     c_bands:  1 eigenvalues not converged
     ethr =  8.52E-06,  avg # of iterations =  8.2

     total cpu time spent up to now is     1673.6 secs

     total energy              =   -1420.80421617 Ry
     estimated scf accuracy    <       0.00970807 Ry

     total magnetization       =   -20.22 Bohr mag/cell
     absolute magnetization    =    33.77 Bohr mag/cell

     iteration # 13     ecut=    90.00 Ry     beta= 0.70
     Davidson diagonalization with overlap

---- Real-time Memory Report at c_bands before calling an iterative solver
           509 MiB given to the printing process from OS
             0 MiB allocation reported by mallinfo(arena+hblkhd)
        107550 MiB available memory on the node where the printing process lives
------------------
     c_bands:  2 eigenvalues not converged
     c_bands:  1 eigenvalues not converged
     c_bands:  2 eigenvalues not converged
     c_bands:  1 eigenvalues not converged
     ethr =  8.52E-06,  avg # of iterations =  3.3

     total cpu time spent up to now is     1735.9 secs

     total energy              =   -1420.80383385 Ry
     estimated scf accuracy    <       0.01232774 Ry

     total magnetization       =   -20.23 Bohr mag/cell
     absolute magnetization    =    33.75 Bohr mag/cell

     iteration # 14     ecut=    90.00 Ry     beta= 0.70
     Davidson diagonalization with overlap

---- Real-time Memory Report at c_bands before calling an iterative solver
           509 MiB given to the printing process from OS
             0 MiB allocation reported by mallinfo(arena+hblkhd)
        107560 MiB available memory on the node where the printing process lives
------------------
     c_bands:  1 eigenvalues not converged
     ethr =  8.52E-06,  avg # of iterations =  1.7

     total cpu time spent up to now is     1793.4 secs

     total energy              =   -1420.80391102 Ry
     estimated scf accuracy    <       0.00933850 Ry

     total magnetization       =   -20.20 Bohr mag/cell
     absolute magnetization    =    33.77 Bohr mag/cell

     iteration # 15     ecut=    90.00 Ry     beta= 0.70
     Davidson diagonalization with overlap

---- Real-time Memory Report at c_bands before calling an iterative solver
           509 MiB given to the printing process from OS
             0 MiB allocation reported by mallinfo(arena+hblkhd)
        107565 MiB available memory on the node where the printing process lives
------------------
     ethr =  8.34E-06,  avg # of iterations =  1.0

     total cpu time spent up to now is     1851.0 secs

     total energy              =   -1420.80354828 Ry
     estimated scf accuracy    <       0.00848378 Ry

     total magnetization       =   -20.20 Bohr mag/cell
     absolute magnetization    =    33.78 Bohr mag/cell

     iteration # 16     ecut=    90.00 Ry     beta= 0.70
     Davidson diagonalization with overlap

---- Real-time Memory Report at c_bands before calling an iterative solver
           509 MiB given to the printing process from OS
             0 MiB allocation reported by mallinfo(arena+hblkhd)
        107557 MiB available memory on the node where the printing process lives
------------------
     ethr =  7.57E-06,  avg # of iterations =  1.0

     total cpu time spent up to now is     1907.5 secs

     total energy              =   -1420.80324713 Ry
     estimated scf accuracy    <       0.00438741 Ry

     total magnetization       =   -20.18 Bohr mag/cell
     absolute magnetization    =    33.80 Bohr mag/cell

     iteration # 17     ecut=    90.00 Ry     beta= 0.70
     Davidson diagonalization with overlap

---- Real-time Memory Report at c_bands before calling an iterative solver
           509 MiB given to the printing process from OS
             0 MiB allocation reported by mallinfo(arena+hblkhd)
        107545 MiB available memory on the node where the printing process lives
------------------
     c_bands:  1 eigenvalues not converged
     c_bands:  1 eigenvalues not converged
     c_bands:  1 eigenvalues not converged
     c_bands:  3 eigenvalues not converged
     c_bands:  2 eigenvalues not converged
     ethr =  3.92E-06,  avg # of iterations =  5.0

     total cpu time spent up to now is     1976.3 secs

     total energy              =   -1420.80341939 Ry
     estimated scf accuracy    <       0.00095540 Ry

     total magnetization       =   -20.15 Bohr mag/cell
     absolute magnetization    =    33.83 Bohr mag/cell

     iteration # 18     ecut=    90.00 Ry     beta= 0.70
     Davidson diagonalization with overlap

---- Real-time Memory Report at c_bands before calling an iterative solver
           509 MiB given to the printing process from OS
             0 MiB allocation reported by mallinfo(arena+hblkhd)
        107537 MiB available memory on the node where the printing process lives
------------------
     c_bands:  2 eigenvalues not converged
     c_bands:  1 eigenvalues not converged
     c_bands:  1 eigenvalues not converged
     c_bands:  3 eigenvalues not converged
     c_bands:  1 eigenvalues not converged
     c_bands:  2 eigenvalues not converged
     c_bands:  2 eigenvalues not converged
     c_bands:  1 eigenvalues not converged
     c_bands:  1 eigenvalues not converged
     c_bands:  1 eigenvalues not converged
     c_bands:  3 eigenvalues not converged
     c_bands:  3 eigenvalues not converged
     c_bands:  4 eigenvalues not converged
     c_bands:  2 eigenvalues not converged
     c_bands:  2 eigenvalues not converged
     c_bands:  3 eigenvalues not converged
     c_bands:  3 eigenvalues not converged
     c_bands:  4 eigenvalues not converged
     c_bands:  4 eigenvalues not converged
     c_bands:  3 eigenvalues not converged
     c_bands:  2 eigenvalues not converged
     c_bands:  1 eigenvalues not converged
     c_bands:  1 eigenvalues not converged
     c_bands:  2 eigenvalues not converged
     c_bands:  2 eigenvalues not converged
     c_bands:  4 eigenvalues not converged
     c_bands:  1 eigenvalues not converged
     ethr =  8.53E-07,  avg # of iterations = 13.5

     total cpu time spent up to now is     2082.2 secs

     total energy              =   -1420.80358093 Ry
     estimated scf accuracy    <       0.00011690 Ry

     total magnetization       =   -20.15 Bohr mag/cell
     absolute magnetization    =    33.80 Bohr mag/cell

     iteration # 19     ecut=    90.00 Ry     beta= 0.70
     Davidson diagonalization with overlap

---- Real-time Memory Report at c_bands before calling an iterative solver
           509 MiB given to the printing process from OS
             0 MiB allocation reported by mallinfo(arena+hblkhd)
        107540 MiB available memory on the node where the printing process lives
------------------
     c_bands:  3 eigenvalues not converged
     c_bands:  3 eigenvalues not converged
     c_bands:  1 eigenvalues not converged
     c_bands:  2 eigenvalues not converged
     c_bands:  2 eigenvalues not converged
     c_bands:  2 eigenvalues not converged
     c_bands:  1 eigenvalues not converged
     c_bands:  3 eigenvalues not converged
     c_bands:  2 eigenvalues not converged
     c_bands:  2 eigenvalues not converged
     c_bands:  4 eigenvalues not converged
     c_bands:  4 eigenvalues not converged
     c_bands:  3 eigenvalues not converged
     c_bands:  4 eigenvalues not converged
     c_bands:  2 eigenvalues not converged
     c_bands:  2 eigenvalues not converged
     c_bands:  2 eigenvalues not converged
     c_bands:  4 eigenvalues not converged
     c_bands:  4 eigenvalues not converged
     c_bands:  3 eigenvalues not converged
     c_bands:  3 eigenvalues not converged
     c_bands:  4 eigenvalues not converged
     c_bands:  3 eigenvalues not converged
     c_bands:  4 eigenvalues not converged
     c_bands:  3 eigenvalues not converged
     c_bands:  4 eigenvalues not converged
     c_bands:  3 eigenvalues not converged
     c_bands:  2 eigenvalues not converged
     ethr =  1.04E-07,  avg # of iterations = 13.0

     total cpu time spent up to now is     2187.0 secs

     total energy              =   -1420.80358777 Ry
     estimated scf accuracy    <       0.00011250 Ry

     total magnetization       =   -20.15 Bohr mag/cell
     absolute magnetization    =    33.79 Bohr mag/cell

     iteration # 20     ecut=    90.00 Ry     beta= 0.70
     Davidson diagonalization with overlap

---- Real-time Memory Report at c_bands before calling an iterative solver
           510 MiB given to the printing process from OS
             0 MiB allocation reported by mallinfo(arena+hblkhd)
        107533 MiB available memory on the node where the printing process lives
------------------
     c_bands:  2 eigenvalues not converged
     c_bands:  1 eigenvalues not converged
     c_bands:  1 eigenvalues not converged
     c_bands:  1 eigenvalues not converged
     c_bands:  2 eigenvalues not converged
     c_bands:  3 eigenvalues not converged
     c_bands:  1 eigenvalues not converged
     c_bands:  1 eigenvalues not converged
     c_bands:  1 eigenvalues not converged
     c_bands:  2 eigenvalues not converged
     c_bands:  3 eigenvalues not converged
     c_bands:  2 eigenvalues not converged
     c_bands:  3 eigenvalues not converged
     c_bands:  1 eigenvalues not converged
     c_bands:  2 eigenvalues not converged
     c_bands:  2 eigenvalues not converged
     c_bands:  2 eigenvalues not converged
     c_bands:  4 eigenvalues not converged
     c_bands:  1 eigenvalues not converged
     c_bands:  2 eigenvalues not converged
     c_bands:  2 eigenvalues not converged
     c_bands:  2 eigenvalues not converged
     c_bands:  2 eigenvalues not converged
     c_bands:  2 eigenvalues not converged
     c_bands:  2 eigenvalues not converged
     c_bands:  2 eigenvalues not converged
     c_bands:  2 eigenvalues not converged
     ethr =  1.00E-07,  avg # of iterations = 10.3

     total cpu time spent up to now is     2273.0 secs

     total energy              =   -1420.80359515 Ry
     estimated scf accuracy    <       0.00000732 Ry

     total magnetization       =   -20.14 Bohr mag/cell
     absolute magnetization    =    33.80 Bohr mag/cell

     iteration # 21     ecut=    90.00 Ry     beta= 0.70
     Davidson diagonalization with overlap

---- Real-time Memory Report at c_bands before calling an iterative solver
           510 MiB given to the printing process from OS
             0 MiB allocation reported by mallinfo(arena+hblkhd)
        107525 MiB available memory on the node where the printing process lives
------------------
     c_bands:  1 eigenvalues not converged
     c_bands:  2 eigenvalues not converged
     c_bands:  1 eigenvalues not converged
     c_bands:  1 eigenvalues not converged
     c_bands:  1 eigenvalues not converged
     c_bands:  2 eigenvalues not converged
     c_bands:  3 eigenvalues not converged
     c_bands:  3 eigenvalues not converged
     c_bands:  3 eigenvalues not converged
     c_bands:  3 eigenvalues not converged
     c_bands:  2 eigenvalues not converged
     c_bands:  4 eigenvalues not converged
     c_bands:  3 eigenvalues not converged
     c_bands:  3 eigenvalues not converged
     c_bands:  3 eigenvalues not converged
     c_bands:  4 eigenvalues not converged
     c_bands:  3 eigenvalues not converged
     c_bands:  2 eigenvalues not converged
     c_bands:  3 eigenvalues not converged
     c_bands:  2 eigenvalues not converged
     c_bands:  4 eigenvalues not converged
     c_bands:  4 eigenvalues not converged
     c_bands:  2 eigenvalues not converged
     c_bands:  3 eigenvalues not converged
     c_bands:  2 eigenvalues not converged
     c_bands:  2 eigenvalues not converged
     c_bands:  2 eigenvalues not converged
     c_bands:  3 eigenvalues not converged
     c_bands:  4 eigenvalues not converged
     c_bands:  4 eigenvalues not converged
     c_bands:  1 eigenvalues not converged
     ethr =  6.53E-09,  avg # of iterations = 15.2

     total cpu time spent up to now is     2413.6 secs

     total energy              =   -1420.80359931 Ry
     estimated scf accuracy    <       0.00000708 Ry

     total magnetization       =   -20.14 Bohr mag/cell
     absolute magnetization    =    33.80 Bohr mag/cell

     iteration # 22     ecut=    90.00 Ry     beta= 0.70
     Davidson diagonalization with overlap

---- Real-time Memory Report at c_bands before calling an iterative solver
           511 MiB given to the printing process from OS
             0 MiB allocation reported by mallinfo(arena+hblkhd)
        107503 MiB available memory on the node where the printing process lives
------------------
     c_bands:  2 eigenvalues not converged
     c_bands:  1 eigenvalues not converged
     c_bands:  1 eigenvalues not converged
     c_bands:  2 eigenvalues not converged
     c_bands:  1 eigenvalues not converged
     c_bands:  1 eigenvalues not converged
     c_bands:  1 eigenvalues not converged
     c_bands:  1 eigenvalues not converged
     c_bands:  1 eigenvalues not converged
     c_bands:  2 eigenvalues not converged
     c_bands:  3 eigenvalues not converged
     c_bands:  2 eigenvalues not converged
     c_bands:  2 eigenvalues not converged
     c_bands:  1 eigenvalues not converged
     c_bands:  2 eigenvalues not converged
     c_bands:  2 eigenvalues not converged
     c_bands:  3 eigenvalues not converged
     c_bands:  3 eigenvalues not converged
     c_bands:  2 eigenvalues not converged
     c_bands:  2 eigenvalues not converged
     c_bands:  2 eigenvalues not converged
     c_bands:  2 eigenvalues not converged
     c_bands:  2 eigenvalues not converged
     c_bands:  2 eigenvalues not converged
     c_bands:  2 eigenvalues not converged
     c_bands:  3 eigenvalues not converged
     c_bands:  3 eigenvalues not converged
     c_bands:  1 eigenvalues not converged
     ethr =  6.32E-09,  avg # of iterations = 10.7

     total cpu time spent up to now is     2482.5 secs

     total energy              =   -1420.80359912 Ry
     estimated scf accuracy    <       0.00000165 Ry

     total magnetization       =   -20.14 Bohr mag/cell
     absolute magnetization    =    33.79 Bohr mag/cell

     iteration # 23     ecut=    90.00 Ry     beta= 0.70
     Davidson diagonalization with overlap

---- Real-time Memory Report at c_bands before calling an iterative solver
           511 MiB given to the printing process from OS
             0 MiB allocation reported by mallinfo(arena+hblkhd)
        109419 MiB available memory on the node where the printing process lives
------------------
     c_bands:  3 eigenvalues not converged
     c_bands:  2 eigenvalues not converged
     c_bands:  1 eigenvalues not converged
     c_bands:  1 eigenvalues not converged
     c_bands:  2 eigenvalues not converged
     c_bands:  3 eigenvalues not converged
     c_bands:  1 eigenvalues not converged
     c_bands:  1 eigenvalues not converged
     c_bands:  1 eigenvalues not converged
     c_bands:  1 eigenvalues not converged
     c_bands:  2 eigenvalues not converged
     c_bands:  1 eigenvalues not converged
     c_bands:  1 eigenvalues not converged
     c_bands:  2 eigenvalues not converged
     c_bands:  1 eigenvalues not converged
     c_bands:  2 eigenvalues not converged
     c_bands:  1 eigenvalues not converged
     c_bands:  2 eigenvalues not converged
     c_bands:  2 eigenvalues not converged
     c_bands:  3 eigenvalues not converged
     c_bands:  3 eigenvalues not converged
     c_bands:  2 eigenvalues not converged
     c_bands:  2 eigenvalues not converged
     c_bands:  2 eigenvalues not converged
     c_bands:  2 eigenvalues not converged
     c_bands:  2 eigenvalues not converged
     c_bands:  2 eigenvalues not converged
     c_bands:  2 eigenvalues not converged
     c_bands:  4 eigenvalues not converged
     c_bands:  2 eigenvalues not converged
     c_bands:  1 eigenvalues not converged
     ethr =  1.48E-09,  avg # of iterations = 13.3

     total cpu time spent up to now is     2557.4 secs

     total energy              =   -1420.80359950 Ry
     estimated scf accuracy    <       0.00000080 Ry

     total magnetization       =   -20.14 Bohr mag/cell
     absolute magnetization    =    33.80 Bohr mag/cell

     iteration # 24     ecut=    90.00 Ry     beta= 0.70
     Davidson diagonalization with overlap

---- Real-time Memory Report at c_bands before calling an iterative solver
           511 MiB given to the printing process from OS
             0 MiB allocation reported by mallinfo(arena+hblkhd)
        109425 MiB available memory on the node where the printing process lives
------------------
     c_bands:  2 eigenvalues not converged
     c_bands:  1 eigenvalues not converged
     c_bands:  1 eigenvalues not converged
     c_bands:  2 eigenvalues not converged
     c_bands:  2 eigenvalues not converged
     c_bands:  3 eigenvalues not converged
     c_bands:  1 eigenvalues not converged
     c_bands:  1 eigenvalues not converged
     c_bands:  1 eigenvalues not converged
     c_bands:  1 eigenvalues not converged
     c_bands:  1 eigenvalues not converged
     c_bands:  1 eigenvalues not converged
     c_bands:  2 eigenvalues not converged
     c_bands:  1 eigenvalues not converged
     c_bands:  2 eigenvalues not converged
     c_bands:  1 eigenvalues not converged
     c_bands:  1 eigenvalues not converged
     c_bands:  2 eigenvalues not converged
     c_bands:  1 eigenvalues not converged
     c_bands:  2 eigenvalues not converged
     c_bands:  2 eigenvalues not converged
     c_bands:  2 eigenvalues not converged
     c_bands:  2 eigenvalues not converged
     c_bands:  2 eigenvalues not converged
     c_bands:  2 eigenvalues not converged
     c_bands:  2 eigenvalues not converged
     c_bands:  2 eigenvalues not converged
     c_bands:  4 eigenvalues not converged
     c_bands:  3 eigenvalues not converged
     c_bands:  1 eigenvalues not converged
     ethr =  7.11E-10,  avg # of iterations = 11.4

     total cpu time spent up to now is     2617.7 secs

     total energy              =   -1420.80359958 Ry
     estimated scf accuracy    <       0.00000003 Ry

     total magnetization       =   -20.14 Bohr mag/cell
     absolute magnetization    =    33.80 Bohr mag/cell

     iteration # 25     ecut=    90.00 Ry     beta= 0.70
     Davidson diagonalization with overlap

---- Real-time Memory Report at c_bands before calling an iterative solver
           511 MiB given to the printing process from OS
             0 MiB allocation reported by mallinfo(arena+hblkhd)
        109415 MiB available memory on the node where the printing process lives
------------------
     c_bands:  3 eigenvalues not converged
     c_bands:  2 eigenvalues not converged
     c_bands:  5 eigenvalues not converged
     c_bands:  3 eigenvalues not converged
     c_bands:  4 eigenvalues not converged
     c_bands:  5 eigenvalues not converged
     c_bands:  3 eigenvalues not converged
     c_bands:  4 eigenvalues not converged
     c_bands:  4 eigenvalues not converged
     c_bands:  3 eigenvalues not converged
     c_bands:  4 eigenvalues not converged
     c_bands:  3 eigenvalues not converged
     c_bands:  4 eigenvalues not converged
     c_bands:  3 eigenvalues not converged
     c_bands:  4 eigenvalues not converged
     c_bands:  2 eigenvalues not converged
     c_bands:  2 eigenvalues not converged
     c_bands:  4 eigenvalues not converged
     c_bands:  3 eigenvalues not converged
     c_bands:  3 eigenvalues not converged
     c_bands:  4 eigenvalues not converged
     c_bands:  3 eigenvalues not converged
     c_bands:  2 eigenvalues not converged
     c_bands:  4 eigenvalues not converged
     c_bands:  5 eigenvalues not converged
     c_bands:  4 eigenvalues not converged
     c_bands:  4 eigenvalues not converged
     c_bands:  4 eigenvalues not converged
     c_bands:  4 eigenvalues not converged
     c_bands:  4 eigenvalues not converged
     c_bands:  1 eigenvalues not converged
     c_bands:  1 eigenvalues not converged
     c_bands:  1 eigenvalues not converged
     c_bands:  1 eigenvalues not converged
     ethr =  2.33E-11,  avg # of iterations = 16.7

     total cpu time spent up to now is     2720.3 secs

     total energy              =   -1420.80359961 Ry
     estimated scf accuracy    <          3.8E-09 Ry

     total magnetization       =   -20.14 Bohr mag/cell
     absolute magnetization    =    33.80 Bohr mag/cell

     iteration # 26     ecut=    90.00 Ry     beta= 0.70
     Davidson diagonalization with overlap

---- Real-time Memory Report at c_bands before calling an iterative solver
           511 MiB given to the printing process from OS
             0 MiB allocation reported by mallinfo(arena+hblkhd)
        109410 MiB available memory on the node where the printing process lives
------------------
     c_bands:  2 eigenvalues not converged
     c_bands:  2 eigenvalues not converged
     c_bands:  4 eigenvalues not converged
     c_bands:  4 eigenvalues not converged
     c_bands:  2 eigenvalues not converged
     c_bands:  4 eigenvalues not converged
     c_bands:  3 eigenvalues not converged
     c_bands:  4 eigenvalues not converged
     c_bands:  3 eigenvalues not converged
     c_bands:  2 eigenvalues not converged
     c_bands:  5 eigenvalues not converged
     c_bands:  4 eigenvalues not converged
     c_bands:  3 eigenvalues not converged
     c_bands:  3 eigenvalues not converged
     c_bands:  2 eigenvalues not converged
     c_bands:  4 eigenvalues not converged
     c_bands:  2 eigenvalues not converged
     c_bands:  4 eigenvalues not converged
     c_bands:  3 eigenvalues not converged
     c_bands:  4 eigenvalues not converged
     c_bands:  4 eigenvalues not converged
     c_bands:  3 eigenvalues not converged
     c_bands:  2 eigenvalues not converged
     c_bands:  4 eigenvalues not converged
     c_bands:  4 eigenvalues not converged
     c_bands:  4 eigenvalues not converged
     c_bands:  4 eigenvalues not converged
     c_bands:  4 eigenvalues not converged
     c_bands:  4 eigenvalues not converged
     c_bands:  4 eigenvalues not converged
     ethr =  3.36E-12,  avg # of iterations = 13.5

     total cpu time spent up to now is     2801.5 secs

     total energy              =   -1420.80359961 Ry
     estimated scf accuracy    <          1.0E-09 Ry

     total magnetization       =   -20.14 Bohr mag/cell
     absolute magnetization    =    33.80 Bohr mag/cell

     iteration # 27     ecut=    90.00 Ry     beta= 0.70
     Davidson diagonalization with overlap

---- Real-time Memory Report at c_bands before calling an iterative solver
           511 MiB given to the printing process from OS
             0 MiB allocation reported by mallinfo(arena+hblkhd)
        109409 MiB available memory on the node where the printing process lives
------------------
     c_bands:  1 eigenvalues not converged
     c_bands:  1 eigenvalues not converged
     c_bands:  2 eigenvalues not converged
     c_bands:  1 eigenvalues not converged
     c_bands:  2 eigenvalues not converged
     c_bands:  2 eigenvalues not converged
     c_bands:  3 eigenvalues not converged
     c_bands:  4 eigenvalues not converged
     c_bands:  3 eigenvalues not converged
     c_bands:  1 eigenvalues not converged
     c_bands:  2 eigenvalues not converged
     c_bands:  2 eigenvalues not converged
     c_bands:  3 eigenvalues not converged
     c_bands:  3 eigenvalues not converged
     c_bands:  2 eigenvalues not converged
     c_bands:  4 eigenvalues not converged
     c_bands:  2 eigenvalues not converged
     c_bands:  2 eigenvalues not converged
     c_bands:  3 eigenvalues not converged
     c_bands:  5 eigenvalues not converged
     c_bands:  3 eigenvalues not converged
     c_bands:  3 eigenvalues not converged
     c_bands:  2 eigenvalues not converged
     c_bands:  4 eigenvalues not converged
     c_bands:  3 eigenvalues not converged
     c_bands:  3 eigenvalues not converged
     c_bands:  4 eigenvalues not converged
     c_bands:  4 eigenvalues not converged
     c_bands:  4 eigenvalues not converged
     c_bands:  4 eigenvalues not converged
     ethr =  9.02E-13,  avg # of iterations = 12.4

     total cpu time spent up to now is     2867.0 secs

     total energy              =   -1420.80359961 Ry
     estimated scf accuracy    <          9.4E-10 Ry

     total magnetization       =   -20.14 Bohr mag/cell
     absolute magnetization    =    33.80 Bohr mag/cell

     iteration # 28     ecut=    90.00 Ry     beta= 0.70
     Davidson diagonalization with overlap

---- Real-time Memory Report at c_bands before calling an iterative solver
           511 MiB given to the printing process from OS
             0 MiB allocation reported by mallinfo(arena+hblkhd)
        109409 MiB available memory on the node where the printing process lives
------------------
     c_bands:  1 eigenvalues not converged
     c_bands:  1 eigenvalues not converged
     c_bands:  1 eigenvalues not converged
     c_bands:  1 eigenvalues not converged
     c_bands:  1 eigenvalues not converged
     c_bands:  2 eigenvalues not converged
     c_bands:  3 eigenvalues not converged
     c_bands:  3 eigenvalues not converged
     c_bands:  3 eigenvalues not converged
     c_bands:  1 eigenvalues not converged
     c_bands:  1 eigenvalues not converged
     c_bands:  1 eigenvalues not converged
     c_bands:  1 eigenvalues not converged
     c_bands:  3 eigenvalues not converged
     c_bands:  1 eigenvalues not converged
     c_bands:  3 eigenvalues not converged
     c_bands:  1 eigenvalues not converged
     c_bands:  1 eigenvalues not converged
     c_bands:  2 eigenvalues not converged
     c_bands:  2 eigenvalues not converged
     c_bands:  2 eigenvalues not converged
     c_bands:  2 eigenvalues not converged
     c_bands:  2 eigenvalues not converged
     c_bands:  2 eigenvalues not converged
     c_bands:  2 eigenvalues not converged
     c_bands:  2 eigenvalues not converged
     c_bands:  3 eigenvalues not converged
     c_bands:  3 eigenvalues not converged
     c_bands:  4 eigenvalues not converged
     c_bands:  4 eigenvalues not converged
     ethr =  8.38E-13,  avg # of iterations = 12.8

     total cpu time spent up to now is     2934.9 secs

     total energy              =   -1420.80359961 Ry
     estimated scf accuracy    <          7.6E-12 Ry

     total magnetization       =   -20.14 Bohr mag/cell
     absolute magnetization    =    33.80 Bohr mag/cell

     iteration # 29     ecut=    90.00 Ry     beta= 0.70
     Davidson diagonalization with overlap

---- Real-time Memory Report at c_bands before calling an iterative solver
           511 MiB given to the printing process from OS
             0 MiB allocation reported by mallinfo(arena+hblkhd)
        109413 MiB available memory on the node where the printing process lives
------------------
     c_bands:  1 eigenvalues not converged
     c_bands:  1 eigenvalues not converged
     c_bands:  1 eigenvalues not converged
     c_bands:  3 eigenvalues not converged
     c_bands:  2 eigenvalues not converged
     c_bands:  2 eigenvalues not converged
     c_bands:  3 eigenvalues not converged
     c_bands:  3 eigenvalues not converged
     c_bands:  3 eigenvalues not converged
     c_bands:  2 eigenvalues not converged
     c_bands:  1 eigenvalues not converged
     c_bands:  2 eigenvalues not converged
     c_bands:  2 eigenvalues not converged
     c_bands:  3 eigenvalues not converged
     c_bands:  2 eigenvalues not converged
     c_bands:  4 eigenvalues not converged
     c_bands:  3 eigenvalues not converged
     c_bands:  2 eigenvalues not converged
     c_bands:  2 eigenvalues not converged
     c_bands:  2 eigenvalues not converged
     c_bands:  3 eigenvalues not converged
     c_bands:  3 eigenvalues not converged
     c_bands:  3 eigenvalues not converged
     c_bands:  2 eigenvalues not converged
     c_bands:  2 eigenvalues not converged
     c_bands:  4 eigenvalues not converged
     c_bands:  3 eigenvalues not converged
     c_bands:  3 eigenvalues not converged
     c_bands:  4 eigenvalues not converged
     c_bands:  4 eigenvalues not converged
     c_bands:  1 eigenvalues not converged
     c_bands:  1 eigenvalues not converged
     ethr =  1.00E-13,  avg # of iterations = 14.2

     total cpu time spent up to now is     3008.4 secs

     total energy              =   -1420.80359961 Ry
     estimated scf accuracy    <          3.1E-12 Ry

     total magnetization       =   -20.14 Bohr mag/cell
     absolute magnetization    =    33.80 Bohr mag/cell

     iteration # 30     ecut=    90.00 Ry     beta= 0.70
     Davidson diagonalization with overlap

---- Real-time Memory Report at c_bands before calling an iterative solver
           511 MiB given to the printing process from OS
             0 MiB allocation reported by mallinfo(arena+hblkhd)
        109410 MiB available memory on the node where the printing process lives
------------------
     c_bands:  1 eigenvalues not converged
     c_bands:  1 eigenvalues not converged
     c_bands:  1 eigenvalues not converged
     c_bands:  1 eigenvalues not converged
     c_bands:  2 eigenvalues not converged
     c_bands:  3 eigenvalues not converged
     c_bands:  1 eigenvalues not converged
     c_bands:  3 eigenvalues not converged
     c_bands:  1 eigenvalues not converged
     c_bands:  1 eigenvalues not converged
     c_bands:  1 eigenvalues not converged
     c_bands:  1 eigenvalues not converged
     c_bands:  3 eigenvalues not converged
     c_bands:  2 eigenvalues not converged
     c_bands:  2 eigenvalues not converged
     c_bands:  1 eigenvalues not converged
     c_bands:  1 eigenvalues not converged
     c_bands:  2 eigenvalues not converged
     c_bands:  2 eigenvalues not converged
     c_bands:  2 eigenvalues not converged
     c_bands:  2 eigenvalues not converged
     c_bands:  2 eigenvalues not converged
     c_bands:  2 eigenvalues not converged
     c_bands:  2 eigenvalues not converged
     c_bands:  2 eigenvalues not converged
     c_bands:  2 eigenvalues not converged
     c_bands:  3 eigenvalues not converged
     c_bands:  4 eigenvalues not converged
     c_bands:  4 eigenvalues not converged
     ethr =  1.00E-13,  avg # of iterations = 10.2

     total cpu time spent up to now is     3060.9 secs

     total energy              =   -1420.80359961 Ry
     estimated scf accuracy    <          9.3E-12 Ry

     total magnetization       =   -20.14 Bohr mag/cell
     absolute magnetization    =    33.80 Bohr mag/cell

     iteration # 31     ecut=    90.00 Ry     beta= 0.70
     Davidson diagonalization with overlap

---- Real-time Memory Report at c_bands before calling an iterative solver
           511 MiB given to the printing process from OS
             0 MiB allocation reported by mallinfo(arena+hblkhd)
        109398 MiB available memory on the node where the printing process lives
------------------
     c_bands:  1 eigenvalues not converged
     c_bands:  1 eigenvalues not converged
     c_bands:  1 eigenvalues not converged
     c_bands:  2 eigenvalues not converged
     c_bands:  3 eigenvalues not converged
     c_bands:  1 eigenvalues not converged
     c_bands:  1 eigenvalues not converged
     c_bands:  1 eigenvalues not converged
     c_bands:  1 eigenvalues not converged
     c_bands:  1 eigenvalues not converged
     c_bands:  1 eigenvalues not converged
     c_bands:  2 eigenvalues not converged
     c_bands:  1 eigenvalues not converged
     c_bands:  2 eigenvalues not converged
     c_bands:  1 eigenvalues not converged
     c_bands:  1 eigenvalues not converged
     c_bands:  2 eigenvalues not converged
     c_bands:  2 eigenvalues not converged
     c_bands:  2 eigenvalues not converged
     c_bands:  2 eigenvalues not converged
     c_bands:  2 eigenvalues not converged
     c_bands:  2 eigenvalues not converged
     c_bands:  2 eigenvalues not converged
     c_bands:  2 eigenvalues not converged
     c_bands:  2 eigenvalues not converged
     c_bands:  3 eigenvalues not converged
     c_bands:  4 eigenvalues not converged
     c_bands:  4 eigenvalues not converged
     ethr =  1.00E-13,  avg # of iterations = 10.1

     total cpu time spent up to now is     3112.5 secs

     total energy              =   -1420.80359961 Ry
     estimated scf accuracy    <          5.9E-13 Ry

     total magnetization       =   -20.14 Bohr mag/cell
     absolute magnetization    =    33.80 Bohr mag/cell

     iteration # 32     ecut=    90.00 Ry     beta= 0.70
     Davidson diagonalization with overlap

---- Real-time Memory Report at c_bands before calling an iterative solver
           511 MiB given to the printing process from OS
             0 MiB allocation reported by mallinfo(arena+hblkhd)
        109398 MiB available memory on the node where the printing process lives
------------------
     c_bands:  1 eigenvalues not converged
     c_bands:  1 eigenvalues not converged
     c_bands:  1 eigenvalues not converged
     c_bands:  2 eigenvalues not converged
     c_bands:  2 eigenvalues not converged
     c_bands:  1 eigenvalues not converged
     c_bands:  1 eigenvalues not converged
     c_bands:  1 eigenvalues not converged
     c_bands:  1 eigenvalues not converged
     c_bands:  1 eigenvalues not converged
     c_bands:  1 eigenvalues not converged
     c_bands:  2 eigenvalues not converged
     c_bands:  1 eigenvalues not converged
     c_bands:  2 eigenvalues not converged
     c_bands:  1 eigenvalues not converged
     c_bands:  1 eigenvalues not converged
     c_bands:  2 eigenvalues not converged
     c_bands:  2 eigenvalues not converged
     c_bands:  2 eigenvalues not converged
     c_bands:  2 eigenvalues not converged
     c_bands:  1 eigenvalues not converged
     c_bands:  2 eigenvalues not converged
     c_bands:  2 eigenvalues not converged
     c_bands:  2 eigenvalues not converged
     c_bands:  2 eigenvalues not converged
     c_bands:  3 eigenvalues not converged
     c_bands:  4 eigenvalues not converged
     c_bands:  4 eigenvalues not converged
     ethr =  1.00E-13,  avg # of iterations =  9.9
 
     Magnetic moment per site  (integrated on atomic sphere of radius R)
     atom   1 (R=0.164)  charge= 12.4600  magn=  3.2192
     atom   2 (R=0.164)  charge= 12.4600  magn=  3.2192
     atom   3 (R=0.164)  charge= 12.3476  magn= -3.8800
     atom   4 (R=0.164)  charge= 12.3476  magn= -3.8800
     atom   5 (R=0.164)  charge= 12.3476  magn= -3.8800
     atom   6 (R=0.164)  charge= 12.3476  magn= -3.8800
     atom   7 (R=0.164)  charge= 12.3476  magn= -3.8800
     atom   8 (R=0.164)  charge= 12.3476  magn= -3.8800

     total cpu time spent up to now is     3163.4 secs

     End of self-consistent calculation

 ------ SPIN UP ------------


          k = 0.0000 0.0000 0.0000 ( 52593 PWs)   bands (ev):

   -74.9044 -74.9041 -71.0906 -71.0905 -71.0903 -71.0903 -71.0902 -71.0902
   -46.6528 -46.6528 -46.6505 -46.6502 -46.6502 -46.6496 -42.8976 -42.8928
   -42.8924 -42.8924 -42.8912 -42.8912 -42.8796 -42.8767 -42.8767 -42.8746
   -42.8746 -42.8735 -42.7968 -42.7952 -42.7952 -42.7940 -42.7940 -42.7938
    -7.3654  -4.9448  -4.7563  -4.7563  -4.6788  -4.6765  -4.6591  -4.6591
    -4.5828  -4.5828  -4.5035  -4.5035  -3.8735  -3.1973  -3.1973  -2.6405
    -2.2332  -2.1831  -2.1831  -1.6423  -1.4382  -1.4287  -1.4287  -1.3273
    -1.3273  -1.2695  -1.2204  -1.1466  -1.1466  -1.1275  -1.0054  -0.7790
    -0.7433  -0.7433  -0.6428

     occupation numbers 
     1.0000   1.0000   1.0000   1.0000   1.0000   1.0000   1.0000   1.0000
     1.0000   1.0000   1.0000   1.0000   1.0000   1.0000   1.0000   1.0000
     1.0000   1.0000   1.0000   1.0000   1.0000   1.0000   1.0000   1.0000
     1.0000   1.0000   1.0000   1.0000   1.0000   1.0000   1.0000   1.0000
     1.0000   1.0000   1.0000   1.0000   1.0000   1.0000   1.0000   1.0000
     1.0000   1.0000   1.0000   1.0000   1.0000   0.0000   0.0000   0.0000
     0.0000   0.0000   0.0000   0.0000   0.0000   0.0000   0.0000   0.0000
     0.0000   0.0000   0.0000   0.0000   0.0000   0.0000   0.0000   0.0000
     0.0000   0.0000   0.0000

          k = 0.0000 0.0722 0.0000 ( 52616 PWs)   bands (ev):

   -74.9044 -74.9041 -71.0906 -71.0905 -71.0903 -71.0903 -71.0902 -71.0902
   -46.6528 -46.6528 -46.6505 -46.6502 -46.6502 -46.6496 -42.8976 -42.8928
   -42.8924 -42.8924 -42.8912 -42.8911 -42.8795 -42.8767 -42.8767 -42.8746
   -42.8746 -42.8735 -42.7968 -42.7952 -42.7952 -42.7940 -42.7940 -42.7938
    -7.3497  -4.9409  -4.8158  -4.7555  -4.6835  -4.6651  -4.6555  -4.6456
    -4.5908  -4.5890  -4.4956  -4.4842  -3.8996  -3.2394  -3.1829  -2.6759
    -2.2864  -2.1161  -2.1129  -1.6529  -1.4486  -1.4406  -1.4344  -1.3276
    -1.3271  -1.2633  -1.2130  -1.1466  -1.1408  -1.1330  -0.9849  -0.7799
    -0.7507  -0.7413  -0.6427

     occupation numbers 
     1.0000   1.0000   1.0000   1.0000   1.0000   1.0000   1.0000   1.0000
     1.0000   1.0000   1.0000   1.0000   1.0000   1.0000   1.0000   1.0000
     1.0000   1.0000   1.0000   1.0000   1.0000   1.0000   1.0000   1.0000
     1.0000   1.0000   1.0000   1.0000   1.0000   1.0000   1.0000   1.0000
     1.0000   1.0000   1.0000   1.0000   1.0000   1.0000   1.0000   1.0000
     1.0000   1.0000   1.0000   1.0000   1.0000   0.0000   0.0000   0.0000
     0.0000   0.0000   0.0000   0.0000   0.0000   0.0000   0.0000   0.0000
     0.0000   0.0000   0.0000   0.0000   0.0000   0.0000   0.0000   0.0000
     0.0000   0.0000   0.0000

          k = 0.0000 0.1443 0.0000 ( 52628 PWs)   bands (ev):

   -74.9044 -74.9041 -71.0906 -71.0905 -71.0903 -71.0903 -71.0902 -71.0902
   -46.6528 -46.6527 -46.6505 -46.6503 -46.6502 -46.6496 -42.8975 -42.8928
   -42.8924 -42.8923 -42.8914 -42.8911 -42.8794 -42.8768 -42.8767 -42.8747
   -42.8745 -42.8735 -42.7968 -42.7952 -42.7952 -42.7940 -42.7940 -42.7938
    -7.3031  -4.9383  -4.9303  -4.7544  -4.7085  -4.6702  -4.6501  -4.6219
    -4.5950  -4.5897  -4.4805  -4.4368  -3.9563  -3.3476  -3.1748  -2.7042
    -2.3631  -2.0089  -1.9779  -1.6883  -1.4803  -1.4589  -1.4408  -1.3357
    -1.3342  -1.2453  -1.1898  -1.1464  -1.1404  -1.1257  -0.9335  -0.7815
    -0.7717  -0.7356  -0.6408

     occupation numbers 
     1.0000   1.0000   1.0000   1.0000   1.0000   1.0000   1.0000   1.0000
     1.0000   1.0000   1.0000   1.0000   1.0000   1.0000   1.0000   1.0000
     1.0000   1.0000   1.0000   1.0000   1.0000   1.0000   1.0000   1.0000
     1.0000   1.0000   1.0000   1.0000   1.0000   1.0000   1.0000   1.0000
     1.0000   1.0000   1.0000   1.0000   1.0000   1.0000   1.0000   1.0000
     1.0000   1.0000   1.0000   1.0000   1.0000   0.0159   0.0000   0.0000
     0.0000   0.0000   0.0000   0.0000   0.0000   0.0000   0.0000   0.0000
     0.0000   0.0000   0.0000   0.0000   0.0000   0.0000   0.0000   0.0000
     0.0000   0.0000   0.0000

          k = 0.0000 0.2165 0.0000 ( 52614 PWs)   bands (ev):

   -74.9044 -74.9041 -71.0906 -71.0904 -71.0904 -71.0903 -71.0902 -71.0902
   -46.6528 -46.6526 -46.6505 -46.6504 -46.6501 -46.6496 -42.8973 -42.8928
   -42.8925 -42.8924 -42.8916 -42.8910 -42.8791 -42.8770 -42.8768 -42.8748
   -42.8745 -42.8734 -42.7967 -42.7953 -42.7952 -42.7940 -42.7940 -42.7938
    -7.2264  -5.1071  -4.9153  -4.7555  -4.7474  -4.6829  -4.6532  -4.6256
    -4.5739  -4.5642  -4.4675  -4.3677  -4.0099  -3.4894  -3.2140  -2.6540
    -2.4696  -1.9112  -1.8350  -1.7431  -1.5210  -1.4625  -1.4502  -1.3516
    -1.3500  -1.2170  -1.1760  -1.1461  -1.1228  -1.1030  -0.8664  -0.8028
    -0.7816  -0.7271  -0.6378

     occupation numbers 
     1.0000   1.0000   1.0000   1.0000   1.0000   1.0000   1.0000   1.0000
     1.0000   1.0000   1.0000   1.0000   1.0000   1.0000   1.0000   1.0000
     1.0000   1.0000   1.0000   1.0000   1.0000   1.0000   1.0000   1.0000
     1.0000   1.0000   1.0000   1.0000   1.0000   1.0000   1.0000   1.0000
     1.0000   1.0000   1.0000   1.0000   1.0000   1.0000   1.0000   1.0000
     1.0000   1.0000   1.0000   1.0000   1.0000   0.7889   0.0000   0.0000
     0.0000   0.0000   0.0000   0.0000   0.0000   0.0000   0.0000   0.0000
     0.0000   0.0000   0.0000   0.0000   0.0000   0.0000   0.0000   0.0000
     0.0000   0.0000   0.0000

          k = 0.0000 0.2887 0.0000 ( 52560 PWs)   bands (ev):

   -74.9044 -74.9041 -71.0905 -71.0904 -71.0904 -71.0904 -71.0902 -71.0902
   -46.6528 -46.6525 -46.6506 -46.6505 -46.6501 -46.6496 -42.8971 -42.8929
   -42.8926 -42.8925 -42.8917 -42.8908 -42.8789 -42.8771 -42.8769 -42.8749
   -42.8744 -42.8734 -42.7966 -42.7953 -42.7952 -42.7941 -42.7940 -42.7938
    -7.1216  -5.3134  -4.8988  -4.7915  -4.7592  -4.7030  -4.6608  -4.6261
    -4.5536  -4.5163  -4.4596  -4.2756  -4.0454  -3.6409  -3.2784  -2.6182
    -2.5481  -1.8573  -1.7765  -1.7199  -1.5631  -1.4612  -1.4503  -1.3712
    -1.3649  -1.1858  -1.1803  -1.1308  -1.0957  -1.0663  -0.8488  -0.7870
    -0.7782  -0.7170  -0.6415

     occupation numbers 
     1.0000   1.0000   1.0000   1.0000   1.0000   1.0000   1.0000   1.0000
     1.0000   1.0000   1.0000   1.0000   1.0000   1.0000   1.0000   1.0000
     1.0000   1.0000   1.0000   1.0000   1.0000   1.0000   1.0000   1.0000
     1.0000   1.0000   1.0000   1.0000   1.0000   1.0000   1.0000   1.0000
     1.0000   1.0000   1.0000   1.0000   1.0000   1.0000   1.0000   1.0000
     1.0000   1.0000   1.0000   1.0000   1.0000   1.0000   0.0002   0.0000
     0.0000   0.0000   0.0000   0.0000   0.0000   0.0000   0.0000   0.0000
     0.0000   0.0000   0.0000   0.0000   0.0000   0.0000   0.0000   0.0000
     0.0000   0.0000   0.0000

          k = 0.0000 0.3608 0.0000 ( 52574 PWs)   bands (ev):

   -74.9043 -74.9041 -71.0905 -71.0904 -71.0904 -71.0904 -71.0902 -71.0902
   -46.6528 -46.6523 -46.6507 -46.6505 -46.6501 -46.6497 -42.8968 -42.8930
   -42.8929 -42.8926 -42.8917 -42.8907 -42.8785 -42.8772 -42.8770 -42.8750
   -42.8743 -42.8734 -42.7965 -42.7954 -42.7951 -42.7941 -42.7940 -42.7938
    -6.9924  -5.5402  -4.8831  -4.8330  -4.7645  -4.7245  -4.6681  -4.6230
    -4.5373  -4.4567  -4.4544  -4.1601  -4.0636  -3.7878  -3.3387  -2.8033
    -2.4235  -1.8798  -1.7444  -1.6869  -1.5693  -1.4647  -1.4292  -1.3917
    -1.3709  -1.1921  -1.1386  -1.1241  -1.0636  -1.0232  -0.8930  -0.7700
    -0.7196  -0.7072  -0.6666

     occupation numbers 
     1.0000   1.0000   1.0000   1.0000   1.0000   1.0000   1.0000   1.0000
     1.0000   1.0000   1.0000   1.0000   1.0000   1.0000   1.0000   1.0000
     1.0000   1.0000   1.0000   1.0000   1.0000   1.0000   1.0000   1.0000
     1.0000   1.0000   1.0000   1.0000   1.0000   1.0000   1.0000   1.0000
     1.0000   1.0000   1.0000   1.0000   1.0000   1.0000   1.0000   1.0000
     1.0000   1.0000   1.0000   1.0000   1.0000   1.0000   0.0099   0.0000
     0.0000   0.0000   0.0000   0.0000   0.0000   0.0000   0.0000   0.0000
     0.0000   0.0000   0.0000   0.0000   0.0000   0.0000   0.0000   0.0000
     0.0000   0.0000   0.0000

          k = 0.0000 0.4330 0.0000 ( 52578 PWs)   bands (ev):

   -74.9043 -74.9042 -71.0905 -71.0904 -71.0904 -71.0904 -71.0903 -71.0902
   -46.6528 -46.6521 -46.6509 -46.6505 -46.6501 -46.6497 -42.8965 -42.8934
   -42.8929 -42.8926 -42.8917 -42.8906 -42.8782 -42.8774 -42.8771 -42.8751
   -42.8742 -42.8734 -42.7964 -42.7955 -42.7951 -42.7942 -42.7940 -42.7938
    -6.8469  -5.7655  -4.8700  -4.8663  -4.7694  -4.7425  -4.6739  -4.6192
    -4.5248  -4.4573  -4.3828  -4.0709  -4.0314  -3.9175  -3.3839  -3.0029
    -2.3011  -1.9083  -1.7415  -1.7111  -1.5487  -1.4440  -1.4178  -1.3950
    -1.3705  -1.1909  -1.1228  -1.0981  -1.0315  -0.9847  -0.9363  -0.7564
    -0.7001  -0.6870  -0.6713

     occupation numbers 
     1.0000   1.0000   1.0000   1.0000   1.0000   1.0000   1.0000   1.0000
     1.0000   1.0000   1.0000   1.0000   1.0000   1.0000   1.0000   1.0000
     1.0000   1.0000   1.0000   1.0000   1.0000   1.0000   1.0000   1.0000
     1.0000   1.0000   1.0000   1.0000   1.0000   1.0000   1.0000   1.0000
     1.0000   1.0000   1.0000   1.0000   1.0000   1.0000   1.0000   1.0000
     1.0000   1.0000   1.0000   1.0000   1.0000   1.0000   0.0820   0.0000
     0.0000   0.0000   0.0000   0.0000   0.0000   0.0000   0.0000   0.0000
     0.0000   0.0000   0.0000   0.0000   0.0000   0.0000   0.0000   0.0000
     0.0000   0.0000   0.0000

          k = 0.0000 0.5052 0.0000 ( 52552 PWs)   bands (ev):

   -74.9043 -74.9042 -71.0905 -71.0904 -71.0904 -71.0904 -71.0903 -71.0902
   -46.6528 -46.6520 -46.6511 -46.6504 -46.6501 -46.6497 -42.8962 -42.8937
   -42.8929 -42.8926 -42.8917 -42.8906 -42.8780 -42.8774 -42.8773 -42.8752
   -42.8742 -42.8734 -42.7963 -42.7955 -42.7951 -42.7942 -42.7940 -42.7938
    -6.7074  -5.9567  -4.8876  -4.8614  -4.7727  -4.7543  -4.6778  -4.6163
    -4.5164  -4.4591  -4.3066  -4.0730  -4.0487  -3.8836  -3.4112  -3.1807
    -2.1992  -1.9253  -1.8091  -1.6918  -1.5473  -1.4264  -1.4148  -1.3762
    -1.3676  -1.1857  -1.1233  -1.0693  -1.0049  -0.9681  -0.9583  -0.7387
    -0.7038  -0.6959  -0.6720

     occupation numbers 
     1.0000   1.0000   1.0000   1.0000   1.0000   1.0000   1.0000   1.0000
     1.0000   1.0000   1.0000   1.0000   1.0000   1.0000   1.0000   1.0000
     1.0000   1.0000   1.0000   1.0000   1.0000   1.0000   1.0000   1.0000
     1.0000   1.0000   1.0000   1.0000   1.0000   1.0000   1.0000   1.0000
     1.0000   1.0000   1.0000   1.0000   1.0000   1.0000   1.0000   1.0000
     1.0000   1.0000   1.0000   1.0000   1.0000   1.0000   0.2052   0.0000
     0.0000   0.0000   0.0000   0.0000   0.0000   0.0000   0.0000   0.0000
     0.0000   0.0000   0.0000   0.0000   0.0000   0.0000   0.0000   0.0000
     0.0000   0.0000   0.0000

          k = 0.0000-0.5774 0.0000 ( 52578 PWs)   bands (ev):

   -74.9043 -74.9042 -71.0905 -71.0904 -71.0904 -71.0904 -71.0903 -71.0902
   -46.6528 -46.6519 -46.6511 -46.6504 -46.6501 -46.6497 -42.8961 -42.8939
   -42.8929 -42.8926 -42.8917 -42.8905 -42.8778 -42.8775 -42.8774 -42.8752
   -42.8741 -42.8734 -42.7962 -42.7956 -42.7951 -42.7942 -42.7940 -42.7939
    -6.6389  -6.0432  -4.8950  -4.8583  -4.7739  -4.7584  -4.6792  -4.6153
    -4.5134  -4.4601  -4.2585  -4.1079  -4.0733  -3.8197  -3.4204  -3.2631
    -2.1537  -1.9308  -1.8435  -1.6856  -1.5487  -1.4302  -1.4032  -1.3677
    -1.3660  -1.1830  -1.1235  -1.0600  -0.9913  -0.9814  -0.9490  -0.7251
    -0.7149  -0.6940  -0.6732

     occupation numbers 
     1.0000   1.0000   1.0000   1.0000   1.0000   1.0000   1.0000   1.0000
     1.0000   1.0000   1.0000   1.0000   1.0000   1.0000   1.0000   1.0000
     1.0000   1.0000   1.0000   1.0000   1.0000   1.0000   1.0000   1.0000
     1.0000   1.0000   1.0000   1.0000   1.0000   1.0000   1.0000   1.0000
     1.0000   1.0000   1.0000   1.0000   1.0000   1.0000   1.0000   1.0000
     1.0000   1.0000   1.0000   1.0000   1.0000   1.0000   0.2632   0.0000
     0.0000   0.0000   0.0000   0.0000   0.0000   0.0000   0.0000   0.0000
     0.0000   0.0000   0.0000   0.0000   0.0000   0.0000   0.0000   0.0000
     0.0000   0.0000   0.0000

          k = 0.0625 0.1083 0.0000 ( 52607 PWs)   bands (ev):

   -74.9044 -74.9041 -71.0906 -71.0905 -71.0903 -71.0903 -71.0902 -71.0902
   -46.6528 -46.6527 -46.6505 -46.6503 -46.6502 -46.6496 -42.8975 -42.8928
   -42.8924 -42.8923 -42.8913 -42.8911 -42.8794 -42.8768 -42.8767 -42.8746
   -42.8745 -42.8735 -42.7968 -42.7952 -42.7952 -42.7940 -42.7940 -42.7938
    -7.3186  -4.9337  -4.9007  -4.7564  -4.6907  -4.6652  -4.6626  -4.6251
    -4.5948  -4.5932  -4.4821  -4.4534  -3.9401  -3.3273  -3.1538  -2.7118
    -2.3370  -2.0316  -2.0237  -1.6767  -1.4691  -1.4543  -1.4416  -1.3353
    -1.3271  -1.2512  -1.1970  -1.1432  -1.1428  -1.1309  -0.9491  -0.7813
    -0.7644  -0.7377  -0.6417

     occupation numbers 
     1.0000   1.0000   1.0000   1.0000   1.0000   1.0000   1.0000   1.0000
     1.0000   1.0000   1.0000   1.0000   1.0000   1.0000   1.0000   1.0000
     1.0000   1.0000   1.0000   1.0000   1.0000   1.0000   1.0000   1.0000
     1.0000   1.0000   1.0000   1.0000   1.0000   1.0000   1.0000   1.0000
     1.0000   1.0000   1.0000   1.0000   1.0000   1.0000   1.0000   1.0000
     1.0000   1.0000   1.0000   1.0000   1.0000   0.0051   0.0000   0.0000
     0.0000   0.0000   0.0000   0.0000   0.0000   0.0000   0.0000   0.0000
     0.0000   0.0000   0.0000   0.0000   0.0000   0.0000   0.0000   0.0000
     0.0000   0.0000   0.0000

          k = 0.0625 0.1804 0.0000 ( 52600 PWs)   bands (ev):

   -74.9044 -74.9041 -71.0906 -71.0904 -71.0904 -71.0903 -71.0902 -71.0902
   -46.6528 -46.6527 -46.6505 -46.6504 -46.6502 -46.6496 -42.8974 -42.8928
   -42.8925 -42.8923 -42.8915 -42.8910 -42.8792 -42.8769 -42.8768 -42.8747
   -42.8745 -42.8734 -42.7967 -42.7953 -42.7952 -42.7940 -42.7940 -42.7938
    -7.2569  -5.0411  -4.9209  -4.7632  -4.7114  -4.6752  -4.6603  -4.6315
    -4.5899  -4.5717  -4.4645  -4.3983  -3.9921  -3.4699  -3.1385  -2.7152
    -2.4154  -1.9311  -1.8979  -1.7263  -1.4981  -1.4706  -1.4472  -1.3537
    -1.3321  -1.2282  -1.1724  -1.1547  -1.1303  -1.1138  -0.8900  -0.7908
    -0.7813  -0.7310  -0.6389

     occupation numbers 
     1.0000   1.0000   1.0000   1.0000   1.0000   1.0000   1.0000   1.0000
     1.0000   1.0000   1.0000   1.0000   1.0000   1.0000   1.0000   1.0000
     1.0000   1.0000   1.0000   1.0000   1.0000   1.0000   1.0000   1.0000
     1.0000   1.0000   1.0000   1.0000   1.0000   1.0000   1.0000   1.0000
     1.0000   1.0000   1.0000   1.0000   1.0000   1.0000   1.0000   1.0000
     1.0000   1.0000   1.0000   1.0000   1.0000   0.6541   0.0000   0.0000
     0.0000   0.0000   0.0000   0.0000   0.0000   0.0000   0.0000   0.0000
     0.0000   0.0000   0.0000   0.0000   0.0000   0.0000   0.0000   0.0000
     0.0000   0.0000   0.0000

          k = 0.0625 0.2526 0.0000 ( 52616 PWs)   bands (ev):

   -74.9044 -74.9041 -71.0905 -71.0904 -71.0904 -71.0904 -71.0902 -71.0902
   -46.6528 -46.6525 -46.6505 -46.6505 -46.6501 -46.6496 -42.8972 -42.8928
   -42.8926 -42.8924 -42.8917 -42.8909 -42.8790 -42.8770 -42.8768 -42.8748
   -42.8744 -42.8734 -42.7966 -42.7953 -42.7952 -42.7940 -42.7940 -42.7938
    -7.1660  -5.2249  -4.9053  -4.7832  -4.7381  -4.6913  -4.6645  -4.6325
    -4.5697  -4.5435  -4.4495  -4.3189  -4.0329  -3.6245  -3.1760  -2.6539
    -2.5236  -1.8634  -1.7916  -1.7578  -1.5362  -1.4716  -1.4503  -1.3745
    -1.3445  -1.1961  -1.1781  -1.1390  -1.1069  -1.0852  -0.8328  -0.8130
[...]
     1.0000   0.8153   0.0001

          k = 0.1250 0.3608 0.0000 ( 52572 PWs)   bands (ev):

   -74.9047 -74.9044 -74.9043 -74.9043 -74.9042 -74.9042 -71.7146 -71.7145
   -46.6989 -46.6982 -46.6976 -46.6966 -46.6962 -46.6961 -46.6822 -46.6810
   -46.6803 -46.6797 -46.6788 -46.6778 -46.6719 -46.6714 -46.6713 -46.6693
   -46.6692 -46.6690 -43.4592 -43.4581 -43.4558 -43.4553 -43.4540 -43.4535
    -7.3502  -6.0033  -5.6216  -5.4093  -5.0535  -4.9797  -4.9120  -4.8507
    -4.7393  -4.6072  -4.5815  -4.5582  -4.5467  -4.4795  -4.4742  -4.4240
    -4.4152  -4.3722  -4.3240  -4.3079  -4.2962  -4.2357  -4.2062  -4.1925
    -4.1073  -4.0453  -4.0415  -3.9817  -3.9725  -3.9273  -3.9063  -3.8997
    -3.7856  -3.5956  -3.3898

     occupation numbers 
     1.0000   1.0000   1.0000   1.0000   1.0000   1.0000   1.0000   1.0000
     1.0000   1.0000   1.0000   1.0000   1.0000   1.0000   1.0000   1.0000
     1.0000   1.0000   1.0000   1.0000   1.0000   1.0000   1.0000   1.0000
     1.0000   1.0000   1.0000   1.0000   1.0000   1.0000   1.0000   1.0000
     1.0000   1.0000   1.0000   1.0000   1.0000   1.0000   1.0000   1.0000
     1.0000   1.0000   1.0000   1.0000   1.0000   1.0000   1.0000   1.0000
     1.0000   1.0000   1.0000   1.0000   1.0000   1.0000   1.0000   1.0000
     1.0000   1.0000   1.0000   1.0000   1.0000   1.0000   1.0000   1.0000
     1.0000   0.9987   0.1023

          k = 0.1250 0.4330 0.0000 ( 52581 PWs)   bands (ev):

   -74.9047 -74.9044 -74.9043 -74.9043 -74.9042 -74.9042 -71.7146 -71.7145
   -46.6990 -46.6981 -46.6975 -46.6966 -46.6963 -46.6961 -46.6819 -46.6809
   -46.6805 -46.6799 -46.6788 -46.6777 -46.6719 -46.6715 -46.6714 -46.6692
   -46.6692 -46.6690 -43.4590 -43.4583 -43.4558 -43.4552 -43.4541 -43.4534
    -7.1909  -6.2168  -5.4917  -5.4683  -5.0935  -5.0033  -4.9398  -4.8438
    -4.7769  -4.6480  -4.5972  -4.5470  -4.5461  -4.4779  -4.4647  -4.4430
    -4.4320  -4.3622  -4.3248  -4.2936  -4.2636  -4.2037  -4.1709  -4.1627
    -4.1135  -4.0582  -4.0475  -3.9805  -3.9563  -3.9222  -3.9049  -3.8827
    -3.8619  -3.6914  -3.5210

     occupation numbers 
     1.0000   1.0000   1.0000   1.0000   1.0000   1.0000   1.0000   1.0000
     1.0000   1.0000   1.0000   1.0000   1.0000   1.0000   1.0000   1.0000
     1.0000   1.0000   1.0000   1.0000   1.0000   1.0000   1.0000   1.0000
     1.0000   1.0000   1.0000   1.0000   1.0000   1.0000   1.0000   1.0000
     1.0000   1.0000   1.0000   1.0000   1.0000   1.0000   1.0000   1.0000
     1.0000   1.0000   1.0000   1.0000   1.0000   1.0000   1.0000   1.0000
     1.0000   1.0000   1.0000   1.0000   1.0000   1.0000   1.0000   1.0000
     1.0000   1.0000   1.0000   1.0000   1.0000   1.0000   1.0000   1.0000
     1.0000   1.0000   0.9275

          k = 0.1250 0.5052 0.0000 ( 52542 PWs)   bands (ev):

   -74.9046 -74.9045 -74.9043 -74.9043 -74.9042 -74.9042 -71.7146 -71.7146
   -46.6990 -46.6981 -46.6974 -46.6965 -46.6963 -46.6962 -46.6816 -46.6808
   -46.6807 -46.6801 -46.6788 -46.6776 -46.6719 -46.6715 -46.6715 -46.6692
   -46.6692 -46.6690 -43.4589 -43.4584 -43.4559 -43.4551 -43.4541 -43.4534
    -7.0278  -6.4177  -5.5211  -5.3351  -5.1284  -5.0269  -4.9970  -4.8340
    -4.8091  -4.6824  -4.5997  -4.5495  -4.5276  -4.4838  -4.4648  -4.4606
    -4.4366  -4.3506  -4.3314  -4.2892  -4.2165  -4.1839  -4.1465  -4.1342
    -4.1062  -4.0697  -4.0544  -3.9815  -3.9676  -3.9385  -3.9217  -3.8815
    -3.8096  -3.7756  -3.6346

     occupation numbers 
     1.0000   1.0000   1.0000   1.0000   1.0000   1.0000   1.0000   1.0000
     1.0000   1.0000   1.0000   1.0000   1.0000   1.0000   1.0000   1.0000
     1.0000   1.0000   1.0000   1.0000   1.0000   1.0000   1.0000   1.0000
     1.0000   1.0000   1.0000   1.0000   1.0000   1.0000   1.0000   1.0000
     1.0000   1.0000   1.0000   1.0000   1.0000   1.0000   1.0000   1.0000
     1.0000   1.0000   1.0000   1.0000   1.0000   1.0000   1.0000   1.0000
     1.0000   1.0000   1.0000   1.0000   1.0000   1.0000   1.0000   1.0000
     1.0000   1.0000   1.0000   1.0000   1.0000   1.0000   1.0000   1.0000
     1.0000   1.0000   0.9999

          k = 0.1250 0.5774 0.0000 ( 52536 PWs)   bands (ev):

   -74.9046 -74.9045 -74.9043 -74.9043 -74.9042 -74.9042 -71.7146 -71.7146
   -46.6990 -46.6981 -46.6974 -46.6965 -46.6963 -46.6962 -46.6815 -46.6809
   -46.6807 -46.6802 -46.6788 -46.6776 -46.6719 -46.6715 -46.6715 -46.6692
   -46.6691 -46.6690 -43.4589 -43.4584 -43.4559 -43.4551 -43.4542 -43.4534
    -6.9359  -6.5231  -5.5351  -5.2265  -5.1714  -5.0681  -5.0144  -4.8292
    -4.8199  -4.6939  -4.5995  -4.5518  -4.5095  -4.4996  -4.4680  -4.4637
    -4.4358  -4.3447  -4.3355  -4.2875  -4.1893  -4.1812  -4.1363  -4.1138
    -4.1130  -4.0720  -4.0596  -4.0024  -3.9712  -3.9462  -3.9008  -3.8725
    -3.8242  -3.7647  -3.7006

     occupation numbers 
     1.0000   1.0000   1.0000   1.0000   1.0000   1.0000   1.0000   1.0000
     1.0000   1.0000   1.0000   1.0000   1.0000   1.0000   1.0000   1.0000
     1.0000   1.0000   1.0000   1.0000   1.0000   1.0000   1.0000   1.0000
     1.0000   1.0000   1.0000   1.0000   1.0000   1.0000   1.0000   1.0000
     1.0000   1.0000   1.0000   1.0000   1.0000   1.0000   1.0000   1.0000
     1.0000   1.0000   1.0000   1.0000   1.0000   1.0000   1.0000   1.0000
     1.0000   1.0000   1.0000   1.0000   1.0000   1.0000   1.0000   1.0000
     1.0000   1.0000   1.0000   1.0000   1.0000   1.0000   1.0000   1.0000
     1.0000   1.0000   1.0000

          k = 0.1875 0.3248 0.0000 ( 52565 PWs)   bands (ev):

   -74.9047 -74.9044 -74.9043 -74.9043 -74.9042 -74.9042 -71.7146 -71.7145
   -46.6989 -46.6982 -46.6976 -46.6966 -46.6962 -46.6961 -46.6822 -46.6810
   -46.6803 -46.6796 -46.6789 -46.6778 -46.6719 -46.6714 -46.6713 -46.6693
   -46.6692 -46.6690 -43.4592 -43.4581 -43.4558 -43.4552 -43.4540 -43.4535
    -7.3649  -5.9609  -5.6354  -5.4435  -5.0281  -4.9595  -4.9222  -4.8727
    -4.7379  -4.5897  -4.5676  -4.5598  -4.5257  -4.4933  -4.4781  -4.4180
    -4.4017  -4.3682  -4.3266  -4.3168  -4.2844  -4.2467  -4.2281  -4.2103
    -4.1079  -4.0421  -4.0346  -3.9895  -3.9803  -3.9319  -3.9057  -3.9012
    -3.7601  -3.6341  -3.3338

     occupation numbers 
     1.0000   1.0000   1.0000   1.0000   1.0000   1.0000   1.0000   1.0000
     1.0000   1.0000   1.0000   1.0000   1.0000   1.0000   1.0000   1.0000
     1.0000   1.0000   1.0000   1.0000   1.0000   1.0000   1.0000   1.0000
     1.0000   1.0000   1.0000   1.0000   1.0000   1.0000   1.0000   1.0000
     1.0000   1.0000   1.0000   1.0000   1.0000   1.0000   1.0000   1.0000
     1.0000   1.0000   1.0000   1.0000   1.0000   1.0000   1.0000   1.0000
     1.0000   1.0000   1.0000   1.0000   1.0000   1.0000   1.0000   1.0000
     1.0000   1.0000   1.0000   1.0000   1.0000   1.0000   1.0000   1.0000
     1.0000   0.9999   0.0075

          k = 0.1875 0.3969 0.0000 ( 52546 PWs)   bands (ev):

   -74.9047 -74.9044 -74.9043 -74.9043 -74.9042 -74.9042 -71.7146 -71.7145
   -46.6990 -46.6980 -46.6976 -46.6966 -46.6962 -46.6961 -46.6820 -46.6808
   -46.6805 -46.6797 -46.6790 -46.6776 -46.6719 -46.6715 -46.6714 -46.6692
   -46.6692 -46.6690 -43.4591 -43.4582 -43.4558 -43.4551 -43.4541 -43.4534
    -7.2169  -6.1396  -5.5530  -5.5067  -5.0609  -4.9826  -4.9304  -4.8761
    -4.7685  -4.5953  -4.5805  -4.5564  -4.5392  -4.4899  -4.4701  -4.4291
    -4.4110  -4.3604  -4.3142  -4.2823  -4.2799  -4.2292  -4.2037  -4.1940
    -4.1183  -4.0470  -4.0435  -3.9852  -3.9805  -3.9168  -3.9098  -3.8724
    -3.8552  -3.7420  -3.4510

     occupation numbers 
     1.0000   1.0000   1.0000   1.0000   1.0000   1.0000   1.0000   1.0000
     1.0000   1.0000   1.0000   1.0000   1.0000   1.0000   1.0000   1.0000
     1.0000   1.0000   1.0000   1.0000   1.0000   1.0000   1.0000   1.0000
     1.0000   1.0000   1.0000   1.0000   1.0000   1.0000   1.0000   1.0000
     1.0000   1.0000   1.0000   1.0000   1.0000   1.0000   1.0000   1.0000
     1.0000   1.0000   1.0000   1.0000   1.0000   1.0000   1.0000   1.0000
     1.0000   1.0000   1.0000   1.0000   1.0000   1.0000   1.0000   1.0000
     1.0000   1.0000   1.0000   1.0000   1.0000   1.0000   1.0000   1.0000
     1.0000   1.0000   0.5016

          k = 0.1875 0.4691 0.0000 ( 52547 PWs)   bands (ev):

   -74.9046 -74.9045 -74.9043 -74.9043 -74.9042 -74.9042 -71.7146 -71.7146
   -46.6990 -46.6980 -46.6975 -46.6965 -46.6963 -46.6962 -46.6817 -46.6808
   -46.6807 -46.6799 -46.6791 -46.6775 -46.6720 -46.6715 -46.6715 -46.6692
   -46.6692 -46.6690 -43.4589 -43.4584 -43.4559 -43.4550 -43.4542 -43.4534
    -7.0533  -6.3304  -5.6259  -5.3738  -5.0992  -5.0093  -4.9491  -4.8588
    -4.8005  -4.6436  -4.5797  -4.5466  -4.5413  -4.4854  -4.4755  -4.4391
    -4.4191  -4.3458  -4.3098  -4.2829  -4.2419  -4.2059  -4.1850  -4.1621
    -4.1198  -4.0601  -4.0502  -3.9793  -3.9727  -3.9430  -3.9201  -3.8976
    -3.8294  -3.8248  -3.5769

     occupation numbers 
     1.0000   1.0000   1.0000   1.0000   1.0000   1.0000   1.0000   1.0000
     1.0000   1.0000   1.0000   1.0000   1.0000   1.0000   1.0000   1.0000
     1.0000   1.0000   1.0000   1.0000   1.0000   1.0000   1.0000   1.0000
     1.0000   1.0000   1.0000   1.0000   1.0000   1.0000   1.0000   1.0000
     1.0000   1.0000   1.0000   1.0000   1.0000   1.0000   1.0000   1.0000
     1.0000   1.0000   1.0000   1.0000   1.0000   1.0000   1.0000   1.0000
     1.0000   1.0000   1.0000   1.0000   1.0000   1.0000   1.0000   1.0000
     1.0000   1.0000   1.0000   1.0000   1.0000   1.0000   1.0000   1.0000
     1.0000   1.0000   0.9956

          k = 0.1875 0.5413 0.0000 ( 52536 PWs)   bands (ev):

   -74.9046 -74.9045 -74.9043 -74.9043 -74.9043 -74.9042 -71.7146 -71.7146
   -46.6990 -46.6979 -46.6974 -46.6965 -46.6963 -46.6962 -46.6815 -46.6809
   -46.6805 -46.6801 -46.6791 -46.6774 -46.6720 -46.6715 -46.6715 -46.6692
   -46.6691 -46.6690 -43.4589 -43.4584 -43.4559 -43.4550 -43.4543 -43.4533
    -6.9068  -6.4934  -5.6634  -5.2501  -5.1434  -5.0410  -4.9639  -4.8419
    -4.8236  -4.6808  -4.5781  -4.5509  -4.5237  -4.4962  -4.4805  -4.4451
    -4.4179  -4.3350  -4.3112  -4.2841  -4.2173  -4.1869  -4.1614  -4.1456
    -4.1173  -4.0670  -4.0595  -3.9938  -3.9682  -3.9507  -3.9319  -3.9016
    -3.8843  -3.7732  -3.6749

     occupation numbers 
     1.0000   1.0000   1.0000   1.0000   1.0000   1.0000   1.0000   1.0000
     1.0000   1.0000   1.0000   1.0000   1.0000   1.0000   1.0000   1.0000
     1.0000   1.0000   1.0000   1.0000   1.0000   1.0000   1.0000   1.0000
     1.0000   1.0000   1.0000   1.0000   1.0000   1.0000   1.0000   1.0000
     1.0000   1.0000   1.0000   1.0000   1.0000   1.0000   1.0000   1.0000
     1.0000   1.0000   1.0000   1.0000   1.0000   1.0000   1.0000   1.0000
     1.0000   1.0000   1.0000   1.0000   1.0000   1.0000   1.0000   1.0000
     1.0000   1.0000   1.0000   1.0000   1.0000   1.0000   1.0000   1.0000
     1.0000   1.0000   1.0000

          k = 0.2500 0.4330 0.0000 ( 52526 PWs)   bands (ev):

   -74.9046 -74.9045 -74.9043 -74.9043 -74.9042 -74.9042 -71.7146 -71.7146
   -46.6990 -46.6979 -46.6975 -46.6965 -46.6963 -46.6962 -46.6817 -46.6808
   -46.6807 -46.6797 -46.6793 -46.6775 -46.6720 -46.6715 -46.6715 -46.6692
   -46.6692 -46.6690 -43.4589 -43.4584 -43.4559 -43.4550 -43.4542 -43.4534
    -7.0628  -6.2897  -5.6722  -5.3871  -5.0901  -5.0045  -4.9172  -4.8849
    -4.7991  -4.6069  -4.5708  -4.5588  -4.5448  -4.4909  -4.4763  -4.4275
    -4.4058  -4.3468  -4.3028  -4.2693  -4.2517  -4.2306  -4.2117  -4.1701
    -4.1232  -4.0519  -4.0498  -3.9909  -3.9788  -3.9334  -3.9125  -3.9031
    -3.8457  -3.8325  -3.5288

     occupation numbers 
     1.0000   1.0000   1.0000   1.0000   1.0000   1.0000   1.0000   1.0000
     1.0000   1.0000   1.0000   1.0000   1.0000   1.0000   1.0000   1.0000
     1.0000   1.0000   1.0000   1.0000   1.0000   1.0000   1.0000   1.0000
     1.0000   1.0000   1.0000   1.0000   1.0000   1.0000   1.0000   1.0000
     1.0000   1.0000   1.0000   1.0000   1.0000   1.0000   1.0000   1.0000
     1.0000   1.0000   1.0000   1.0000   1.0000   1.0000   1.0000   1.0000
     1.0000   1.0000   1.0000   1.0000   1.0000   1.0000   1.0000   1.0000
     1.0000   1.0000   1.0000   1.0000   1.0000   1.0000   1.0000   1.0000
     1.0000   1.0000   0.9474

          k = 0.2500 0.5052 0.0000 ( 52521 PWs)   bands (ev):

   -74.9046 -74.9045 -74.9043 -74.9043 -74.9043 -74.9042 -71.7146 -71.7146
   -46.6991 -46.6978 -46.6975 -46.6965 -46.6963 -46.6963 -46.6815 -46.6810
   -46.6804 -46.6798 -46.6794 -46.6774 -46.6720 -46.6715 -46.6715 -46.6691
   -46.6691 -46.6690 -43.4588 -43.4585 -43.4559 -43.4549 -43.4544 -43.4533
    -6.9008  -6.4488  -5.7513  -5.2727  -5.1261  -5.0252  -4.9165  -4.8661
    -4.8270  -4.6397  -4.5719  -4.5573  -4.5389  -4.4934  -4.4895  -4.4217
    -4.4002  -4.3361  -4.2927  -4.2704  -4.2409  -4.2203  -4.1959  -4.1509
    -4.1240  -4.0611  -4.0573  -3.9882  -3.9823  -3.9624  -3.9270  -3.9197
    -3.9005  -3.7850  -3.6262

     occupation numbers 
     1.0000   1.0000   1.0000   1.0000   1.0000   1.0000   1.0000   1.0000
     1.0000   1.0000   1.0000   1.0000   1.0000   1.0000   1.0000   1.0000
     1.0000   1.0000   1.0000   1.0000   1.0000   1.0000   1.0000   1.0000
     1.0000   1.0000   1.0000   1.0000   1.0000   1.0000   1.0000   1.0000
     1.0000   1.0000   1.0000   1.0000   1.0000   1.0000   1.0000   1.0000
     1.0000   1.0000   1.0000   1.0000   1.0000   1.0000   1.0000   1.0000
     1.0000   1.0000   1.0000   1.0000   1.0000   1.0000   1.0000   1.0000
     1.0000   1.0000   1.0000   1.0000   1.0000   1.0000   1.0000   1.0000
     1.0000   1.0000   0.9999

          k = 0.2500 0.5774 0.0000 ( 52520 PWs)   bands (ev):

   -74.9046 -74.9045 -74.9043 -74.9043 -74.9043 -74.9042 -71.7146 -71.7146
   -46.6991 -46.6978 -46.6975 -46.6965 -46.6963 -46.6963 -46.6814 -46.6811
   -46.6802 -46.6800 -46.6794 -46.6773 -46.6720 -46.6715 -46.6715 -46.6691
   -46.6691 -46.6690 -43.4588 -43.4585 -43.4560 -43.4548 -43.4544 -43.4533
    -6.7986  -6.5504  -5.7783  -5.2024  -5.1604  -5.0363  -4.9180  -4.8464
    -4.8456  -4.6603  -4.5708  -4.5599  -4.5287  -4.5055  -4.4898  -4.4190
    -4.3981  -4.3319  -4.2832  -4.2796  -4.2413  -4.2102  -4.1800  -4.1471
    -4.1239  -4.0642  -4.0625  -3.9936  -3.9810  -3.9640  -3.9494  -3.9308
    -3.9035  -3.7419  -3.6909

     occupation numbers 
     1.0000   1.0000   1.0000   1.0000   1.0000   1.0000   1.0000   1.0000
     1.0000   1.0000   1.0000   1.0000   1.0000   1.0000   1.0000   1.0000
     1.0000   1.0000   1.0000   1.0000   1.0000   1.0000   1.0000   1.0000
     1.0000   1.0000   1.0000   1.0000   1.0000   1.0000   1.0000   1.0000
     1.0000   1.0000   1.0000   1.0000   1.0000   1.0000   1.0000   1.0000
     1.0000   1.0000   1.0000   1.0000   1.0000   1.0000   1.0000   1.0000
     1.0000   1.0000   1.0000   1.0000   1.0000   1.0000   1.0000   1.0000
     1.0000   1.0000   1.0000   1.0000   1.0000   1.0000   1.0000   1.0000
     1.0000   1.0000   1.0000

          k = 0.3125 0.5413 0.0000 ( 52528 PWs)   bands (ev):

   -74.9046 -74.9045 -74.9043 -74.9043 -74.9043 -74.9042 -71.7146 -71.7146
   -46.6991 -46.6977 -46.6976 -46.6965 -46.6963 -46.6963 -46.6814 -46.6812
   -46.6801 -46.6799 -46.6797 -46.6773 -46.6720 -46.6715 -46.6715 -46.6691
   -46.6691 -46.6689 -43.4587 -43.4586 -43.4560 -43.4547 -43.4545 -43.4533
    -6.7472  -6.5781  -5.8243  -5.1993  -5.1552  -5.0315  -4.8885  -4.8665
    -4.8464  -4.6319  -4.5992  -4.5475  -4.5385  -4.5073  -4.4921  -4.4019
    -4.3902  -4.3323  -4.2789  -4.2680  -4.2586  -4.2325  -4.1791  -4.1442
    -4.1315  -4.0632  -4.0619  -3.9975  -3.9868  -3.9662  -3.9608  -3.9242
    -3.9161  -3.7359  -3.6746

     occupation numbers 
     1.0000   1.0000   1.0000   1.0000   1.0000   1.0000   1.0000   1.0000
     1.0000   1.0000   1.0000   1.0000   1.0000   1.0000   1.0000   1.0000
     1.0000   1.0000   1.0000   1.0000   1.0000   1.0000   1.0000   1.0000
     1.0000   1.0000   1.0000   1.0000   1.0000   1.0000   1.0000   1.0000
     1.0000   1.0000   1.0000   1.0000   1.0000   1.0000   1.0000   1.0000
     1.0000   1.0000   1.0000   1.0000   1.0000   1.0000   1.0000   1.0000
     1.0000   1.0000   1.0000   1.0000   1.0000   1.0000   1.0000   1.0000
     1.0000   1.0000   1.0000   1.0000   1.0000   1.0000   1.0000   1.0000
     1.0000   1.0000   1.0000

     the Fermi energy is    -3.4508 ev

!    total energy              =   -1420.80359961 Ry
     estimated scf accuracy    <          6.1E-15 Ry
     smearing contrib. (-TS)   =      -0.00071043 Ry
     internal energy E=F+TS    =   -1420.80288918 Ry

     The total energy is F=E-TS. E is the sum of the following terms:
     one-electron contribution =   -4423.89479907 Ry
     hartree contribution      =    2188.67770493 Ry
     xc contribution           =    -208.56951515 Ry
     ewald contribution        =    1022.98372011 Ry

     total magnetization       =   -20.14 Bohr mag/cell
     absolute magnetization    =    33.80 Bohr mag/cell

     convergence has been achieved in  32 iterations

     Writing all to output data dir ./cri3_90Ry_k16x16x1.save/
 
     init_run     :     25.66s CPU     26.98s WALL (       1 calls)
     electrons    :   3067.62s CPU   3136.47s WALL (       1 calls)

     Called by init_run:
     wfcinit      :     24.74s CPU     25.99s WALL (       1 calls)
     wfcinit:atom :      0.35s CPU      0.58s WALL (      60 calls)
     wfcinit:wfcr :     22.97s CPU     23.73s WALL (      60 calls)
     potinit      :      0.27s CPU      0.27s WALL (       1 calls)
     hinit0       :      0.46s CPU      0.51s WALL (       1 calls)

     Called by electrons:
     c_bands      :   2708.18s CPU   2768.73s WALL (      32 calls)
     sum_band     :    355.73s CPU    363.78s WALL (      32 calls)
     v_of_rho     :      0.91s CPU      0.94s WALL (      33 calls)
     v_h          :      0.23s CPU      0.25s WALL (      33 calls)
     v_xc         :      0.68s CPU      0.69s WALL (      33 calls)
     mix_rho      :      2.53s CPU      2.58s WALL (      32 calls)

     Called by c_bands:
     init_us_2    :     26.63s CPU     26.83s WALL (    3900 calls)
     init_us_2:cp :     26.59s CPU     26.81s WALL (    3900 calls)
     cegterg      :   2550.97s CPU   2610.64s WALL (    1929 calls)

     Called by sum_band:
     sum_band:wei :      0.18s CPU      0.18s WALL (      32 calls)
     sum_band:loo :    354.61s CPU    362.63s WALL (      32 calls)
     sum_band:buf :      6.82s CPU      6.89s WALL (    1920 calls)
     sum_band:ini :     13.14s CPU     13.22s WALL (    1920 calls)

     Called by *egterg:
     cdiaghg      :     91.87s CPU    104.68s WALL (   18796 calls)
     cegterg:over :    171.98s CPU    174.08s WALL (   16876 calls)
     cegterg:upda :    208.46s CPU    210.50s WALL (   16876 calls)
     cegterg:last :    213.80s CPU    215.30s WALL (    4905 calls)
     cdiaghg:chol :      6.28s CPU      6.45s WALL (   18796 calls)
     cdiaghg:inve :      4.61s CPU      4.81s WALL (   18796 calls)
     cdiaghg:para :      8.10s CPU      8.37s WALL (   37592 calls)
     h_psi        :   1821.08s CPU   1862.05s WALL (   18865 calls)
     g_psi        :      9.25s CPU      9.34s WALL (   16876 calls)

     Called by h_psi:
     h_psi:calbec :    119.54s CPU    120.73s WALL (   18865 calls)
     vloc_psi     :   1553.60s CPU   1592.02s WALL (   18865 calls)
     add_vuspsi   :    127.59s CPU    128.29s WALL (   18865 calls)

     General routines
     calbec       :    119.44s CPU    120.67s WALL (   18865 calls)
     fft          :      0.61s CPU      0.67s WALL (     163 calls)
     ffts         :      0.21s CPU      0.22s WALL (      64 calls)
     fftw         :   1407.36s CPU   1442.93s WALL (  913688 calls)
 
     Parallel routines
 
     PWSCF        :  51m34.70s CPU  52m59.54s WALL

 
   This run was terminated on:  11:12:38  16Jan2024            

=------------------------------------------------------------------------------=
   JOB DONE.
=------------------------------------------------------------------------------=
