
     Program PWSCF v.7.0 starts on 16Jan2024 at 10:19:47 

     This program is part of the open-source Quantum ESPRESSO suite
     for quantum simulation of materials; please cite
         "P. Giannozzi et al., J. Phys.:Condens. Matter 21 395502 (2009);
         "P. Giannozzi et al., J. Phys.:Condens. Matter 29 465901 (2017);
         "P. Giannozzi et al., J. Chem. Phys. 152 154105 (2020);
          URL http://www.quantum-espresso.org", 
     in publications or presentations arising from this work. More details at
     http://www.quantum-espresso.org/quote

     Parallel version (MPI), running on    12 processors

     MPI processes distributed on     1 nodes
     R & G space division:  proc/nbgrp/npool/nimage =      12
     115065 MiB available memory on the printing compute node when the environment starts
 
     Reading input from cri3-exp-nosoc_90Ry_k12x12x1.scf.in

     Current dimensions of program PWSCF are:
     Max number of different atomic species (ntypx) = 10
     Max number of k-points (npk) =  40000
     Max angular momentum in pseudopotentials (lmaxx) =  4

     Subspace diagonalization in iterative solution of the eigenvalue problem:
     one sub-group per band group will be used
     scalapack distributed-memory algorithm (size of sub-group:  3*  3 procs)

 
     Parallelization info
     --------------------
     sticks:   dense  smooth     PW     G-vecs:    dense   smooth      PW
     Min         348     348     93                35048    35048    4841
     Max         349     349     94                35057    35057    4846
     Sum        4177    4177   1123               420595   420595   58117
 
     Using Slab Decomposition
 


     bravais-lattice index     =            4
     lattice parameter (alat)  =      12.9767  a.u.
     unit-cell volume          =    3645.8815 (a.u.)^3
     number of atoms/cell      =            8
     number of atomic types    =            2
     number of electrons       =       112.00
     number of Kohn-Sham states=           67
     kinetic-energy cutoff     =      90.0000  Ry
     charge density cutoff     =     360.0000  Ry
     scf convergence threshold =      1.0E-13
     mixing beta               =       0.7000
     number of iterations used =            8  plain     mixing
     Exchange-correlation= PZ
                           (   1   1   0   0   0   0   0)

     celldm(1)=  12.976749  celldm(2)=   0.000000  celldm(3)=   1.926523
     celldm(4)=   0.000000  celldm(5)=   0.000000  celldm(6)=   0.000000

     crystal axes: (cart. coord. in units of alat)
               a(1) = (   1.000000   0.000000   0.000000 )  
               a(2) = (  -0.500000   0.866025   0.000000 )  
               a(3) = (   0.000000   0.000000   1.926523 )  

     reciprocal axes: (cart. coord. in units 2 pi/alat)
               b(1) = (  1.000000  0.577350  0.000000 )  
               b(2) = (  0.000000  1.154701  0.000000 )  
               b(3) = (  0.000000  0.000000  0.519070 )  


     PseudoPot. # 1 for Cr read from file:
     ./Cr_Alejandro.upf
     MD5 check sum: 19f8874af457815d5c8e16c7b8c57f71
     Pseudo is Norm-conserving + core correction, Zval = 14.0
     Generated using ONCVPSP code by D. R. Hamann
     Using radial grid of 1600 points,  6 beta functions with: 
                l(1) =   0
                l(2) =   0
                l(3) =   1
                l(4) =   1
                l(5) =   2
                l(6) =   2

     PseudoPot. # 2 for Cr read from file:
     ./I_Alejandro.upf
     MD5 check sum: 19f8874af457815d5c8e16c7b8c57f71
     Pseudo is Norm-conserving + core correction, Zval = 14.0
     Generated using ONCVPSP code by D. R. Hamann
     Using radial grid of 1600 points,  6 beta functions with: 
                l(1) =   0
                l(2) =   0
                l(3) =   1
                l(4) =   1
                l(5) =   2
                l(6) =   2

     atomic species   valence    mass     pseudopotential
        Cr            14.00    51.99000     Cr( 1.00)
        I             14.00   126.90000     Cr( 1.00)

     Starting magnetic structure 
     atomic species   magnetization
        Cr           1.000
        I            0.000

     12 Sym. Ops., with inversion, found ( 6 have fractional translation)


                                    s                        frac. trans.

      isym =  1     identity                                     

 cryst.   s( 1) = (     1          0          0      )
                  (     0          1          0      )
                  (     0          0          1      )

 cart.    s( 1) = (  1.0000000  0.0000000  0.0000000 )
                  (  0.0000000  1.0000000  0.0000000 )
                  (  0.0000000  0.0000000  1.0000000 )


      isym =  2     180 deg rotation - cart. axis [0,1,0]        

 cryst.   s( 2) = (    -1          0          0      )
                  (     1          1          0      )
                  (     0          0         -1      )

 cart.    s( 2) = ( -1.0000000  0.0000000  0.0000000 )
                  (  0.0000000  1.0000000  0.0000000 )
                  (  0.0000000  0.0000000 -1.0000000 )


      isym =  3     120 deg rotation - cryst. axis [0,0,1]       

 cryst.   s( 3) = (     0          1          0      )
                  (    -1         -1          0      )
                  (     0          0          1      )

 cart.    s( 3) = ( -0.5000000 -0.8660254  0.0000000 )
                  (  0.8660254 -0.5000000  0.0000000 )
                  (  0.0000000  0.0000000  1.0000000 )


      isym =  4     120 deg rotation - cryst. axis [0,0,-1]      

 cryst.   s( 4) = (    -1         -1          0      )
                  (     1          0          0      )
                  (     0          0          1      )

 cart.    s( 4) = ( -0.5000000  0.8660254  0.0000000 )
                  ( -0.8660254 -0.5000000  0.0000000 )
                  (  0.0000000  0.0000000  1.0000000 )


      isym =  5     180 deg rotation - cryst. axis [1,-1,0]      

 cryst.   s( 5) = (     0         -1          0      )
                  (    -1          0          0      )
                  (     0          0         -1      )

 cart.    s( 5) = (  0.5000000 -0.8660254  0.0000000 )
                  ( -0.8660254 -0.5000000  0.0000000 )
                  (  0.0000000  0.0000000 -1.0000000 )


      isym =  6     180 deg rotation - cryst. axis [2,1,0]       

 cryst.   s( 6) = (     1          1          0      )
                  (     0         -1          0      )
                  (     0          0         -1      )

 cart.    s( 6) = (  0.5000000  0.8660254  0.0000000 )
                  (  0.8660254 -0.5000000  0.0000000 )
                  (  0.0000000  0.0000000 -1.0000000 )


      isym =  7     inversion                                    

 cryst.   s( 7) = (    -1          0          0      )    f =( -0.3333333 )
                  (     0         -1          0      )       (  0.3333333 )
                  (     0          0         -1      )       (  0.0000000 )

 cart.    s( 7) = ( -1.0000000  0.0000000  0.0000000 )    f =( -0.5000000 )
                  (  0.0000000 -1.0000000  0.0000000 )       (  0.2886751 )
                  (  0.0000000  0.0000000 -1.0000000 )       (  0.0000000 )


      isym =  8     inv. 180 deg rotation - cart. axis [0,1,0]   

 cryst.   s( 8) = (     1          0          0      )    f =( -0.3333333 )
                  (    -1         -1          0      )       (  0.3333333 )
                  (     0          0          1      )       (  0.0000000 )

 cart.    s( 8) = (  1.0000000  0.0000000  0.0000000 )    f =( -0.5000000 )
                  (  0.0000000 -1.0000000  0.0000000 )       (  0.2886751 )
                  (  0.0000000  0.0000000  1.0000000 )       (  0.0000000 )


      isym =  9     inv. 120 deg rotation - cryst. axis [0,0,1]  

 cryst.   s( 9) = (     0         -1          0      )    f =( -0.3333333 )
                  (     1          1          0      )       (  0.3333333 )
                  (     0          0         -1      )       (  0.0000000 )

 cart.    s( 9) = (  0.5000000  0.8660254  0.0000000 )    f =( -0.5000000 )
                  ( -0.8660254  0.5000000  0.0000000 )       (  0.2886751 )
                  (  0.0000000  0.0000000 -1.0000000 )       (  0.0000000 )


      isym = 10     inv. 120 deg rotation - cryst. axis [0,0,-1] 

 cryst.   s(10) = (     1          1          0      )    f =( -0.3333333 )
                  (    -1          0          0      )       (  0.3333333 )
                  (     0          0         -1      )       (  0.0000000 )

 cart.    s(10) = (  0.5000000 -0.8660254  0.0000000 )    f =( -0.5000000 )
                  (  0.8660254  0.5000000  0.0000000 )       (  0.2886751 )
                  (  0.0000000  0.0000000 -1.0000000 )       (  0.0000000 )


      isym = 11     inv. 180 deg rotation - cryst. axis [1,-1,0] 

 cryst.   s(11) = (     0          1          0      )    f =( -0.3333333 )
                  (     1          0          0      )       (  0.3333333 )
                  (     0          0          1      )       (  0.0000000 )

 cart.    s(11) = ( -0.5000000  0.8660254  0.0000000 )    f =( -0.5000000 )
                  (  0.8660254  0.5000000  0.0000000 )       (  0.2886751 )
                  (  0.0000000  0.0000000  1.0000000 )       (  0.0000000 )


      isym = 12     inv. 180 deg rotation - cryst. axis [2,1,0]  

 cryst.   s(12) = (    -1         -1          0      )    f =( -0.3333333 )
                  (     0          1          0      )       (  0.3333333 )
                  (     0          0          1      )       (  0.0000000 )

 cart.    s(12) = ( -0.5000000 -0.8660254  0.0000000 )    f =( -0.5000000 )
                  ( -0.8660254  0.5000000  0.0000000 )       (  0.2886751 )
                  (  0.0000000  0.0000000  1.0000000 )       (  0.0000000 )


     point group D_3d (-3m) 
     there are  6 classes
     the character table:

       E     2C3   3C2'  i     2S6   3s_d 
A_1g   1.00  1.00  1.00  1.00  1.00  1.00
A_2g   1.00  1.00 -1.00  1.00  1.00 -1.00
E_g    2.00 -1.00  0.00  2.00 -1.00  0.00
A_1u   1.00  1.00  1.00 -1.00 -1.00 -1.00
A_2u   1.00  1.00 -1.00 -1.00 -1.00  1.00
E_u    2.00 -1.00  0.00 -2.00  1.00  0.00

     the symmetry operations in each class and the name of the first element:

     E        1
          identity                                               
     2C3      3    4
          120 deg rotation - cryst. axis [0,0,1]                 
     3C2'     2    6    5
          180 deg rotation - cart. axis [0,1,0]                  
     i        7
          inversion                                              
     2S6      9   10
          inv. 120 deg rotation - cryst. axis [0,0,1]            
     3s_d     8   12   11
          inv. 180 deg rotation - cart. axis [0,1,0]             

   Cartesian axes

     site n.     atom                  positions (alat units)
         1           Cr  tau(   1) = (   0.0000000   0.0000000   0.0000000  )
         2           Cr  tau(   2) = (   0.0000000   0.5773503   0.0000000  )
         3           I   tau(   3) = (  -0.1753225   0.8510331   0.2277694  )
         4           I   tau(   4) = (   0.3246775   0.5923426   0.2277694  )
         5           I   tau(   5) = (  -0.1493550   0.2886751   0.2277694  )
         6           I   tau(   6) = (  -0.3246775   0.5923426  -0.2277694  )
         7           I   tau(   7) = (   0.1753225   0.8510331  -0.2277694  )
         8           I   tau(   8) = (   0.1493550   0.2886751  -0.2277694  )

   Crystallographic axes

     site n.     atom                  positions (cryst. coord.)
         1           Cr  tau(   1) = (  0.0000000  0.0000000  0.0000000  )
         2           Cr  tau(   2) = (  0.3333333  0.6666667  0.0000000  )
         3           I   tau(   3) = (  0.3160217  0.9826883  0.1182283  )
         4           I   tau(   4) = (  0.6666667  0.6839783  0.1182283  )
         5           I   tau(   5) = (  0.0173117  0.3333333  0.1182283  )
         6           I   tau(   6) = (  0.0173117  0.6839783 -0.1182283  )
         7           I   tau(   7) = (  0.6666667  0.9826883 -0.1182283  )
         8           I   tau(   8) = (  0.3160217  0.3333333 -0.1182283  )

     number of k points=    19  Gaussian smearing, width (Ry)=  0.0050
                       cart. coord. in units 2pi/alat
        k(    1) = (   0.0000000   0.0000000   0.0000000), wk =   0.0069444
        k(    2) = (   0.0000000   0.0962250   0.0000000), wk =   0.0416667
        k(    3) = (   0.0000000   0.1924501   0.0000000), wk =   0.0416667
        k(    4) = (   0.0000000   0.2886751   0.0000000), wk =   0.0416667
        k(    5) = (   0.0000000   0.3849002   0.0000000), wk =   0.0416667
        k(    6) = (   0.0000000   0.4811252   0.0000000), wk =   0.0416667
        k(    7) = (   0.0000000  -0.5773503   0.0000000), wk =   0.0208333
        k(    8) = (   0.0833333   0.1443376   0.0000000), wk =   0.0416667
        k(    9) = (   0.0833333   0.2405626   0.0000000), wk =   0.0833333
        k(   10) = (   0.0833333   0.3367877   0.0000000), wk =   0.0833333
        k(   11) = (   0.0833333   0.4330127   0.0000000), wk =   0.0833333
        k(   12) = (   0.0833333   0.5292377   0.0000000), wk =   0.0833333
        k(   13) = (   0.1666667   0.2886751   0.0000000), wk =   0.0416667
        k(   14) = (   0.1666667   0.3849002   0.0000000), wk =   0.0833333
        k(   15) = (   0.1666667   0.4811252   0.0000000), wk =   0.0833333
        k(   16) = (   0.1666667   0.5773503   0.0000000), wk =   0.0416667
        k(   17) = (   0.2500000   0.4330127   0.0000000), wk =   0.0416667
        k(   18) = (   0.2500000   0.5292377   0.0000000), wk =   0.0833333
        k(   19) = (   0.3333333   0.5773503   0.0000000), wk =   0.0138889

                       cryst. coord.
        k(    1) = (   0.0000000   0.0000000   0.0000000), wk =   0.0069444
        k(    2) = (   0.0000000   0.0833333   0.0000000), wk =   0.0416667
        k(    3) = (   0.0000000   0.1666667   0.0000000), wk =   0.0416667
        k(    4) = (   0.0000000   0.2500000   0.0000000), wk =   0.0416667
        k(    5) = (   0.0000000   0.3333333   0.0000000), wk =   0.0416667
        k(    6) = (   0.0000000   0.4166667   0.0000000), wk =   0.0416667
        k(    7) = (   0.0000000  -0.5000000   0.0000000), wk =   0.0208333
        k(    8) = (   0.0833333   0.0833333   0.0000000), wk =   0.0416667
        k(    9) = (   0.0833333   0.1666667   0.0000000), wk =   0.0833333
        k(   10) = (   0.0833333   0.2500000   0.0000000), wk =   0.0833333
        k(   11) = (   0.0833333   0.3333333   0.0000000), wk =   0.0833333
        k(   12) = (   0.0833333   0.4166667   0.0000000), wk =   0.0833333
        k(   13) = (   0.1666667   0.1666667   0.0000000), wk =   0.0416667
        k(   14) = (   0.1666667   0.2500000   0.0000000), wk =   0.0833333
        k(   15) = (   0.1666667   0.3333333   0.0000000), wk =   0.0833333
        k(   16) = (   0.1666667   0.4166667   0.0000000), wk =   0.0416667
        k(   17) = (   0.2500000   0.2500000   0.0000000), wk =   0.0416667
        k(   18) = (   0.2500000   0.3333333   0.0000000), wk =   0.0833333
        k(   19) = (   0.3333333   0.3333333   0.0000000), wk =   0.0138889

     Dense  grid:   420595 G-vectors     FFT dimensions: (  81,  81, 160)

     Dynamical RAM for                 wfc:       4.48 MB

     Dynamical RAM for     wfc (w. buffer):     174.64 MB

     Dynamical RAM for           str. fact:       1.07 MB

     Dynamical RAM for           local pot:       0.00 MB

     Dynamical RAM for          nlocal pot:       9.62 MB

     Dynamical RAM for                qrad:       3.05 MB

     Dynamical RAM for          rho,v,vnew:       7.41 MB

     Dynamical RAM for               rhoin:       2.47 MB

     Dynamical RAM for            rho*nmix:      17.11 MB

     Dynamical RAM for           G-vectors:       2.27 MB

     Dynamical RAM for          h,s,v(r/c):       0.09 MB

     Dynamical RAM for          <psi|beta>:       0.15 MB

     Dynamical RAM for                 psi:       8.96 MB

     Dynamical RAM for                hpsi:       8.96 MB

     Dynamical RAM for      wfcinit/wfcrot:      10.84 MB

     Estimated static dynamical RAM per process >     206.34 MB

     Estimated max dynamical RAM per process >     241.60 MB

     Estimated total dynamical RAM >       2.83 GB
 ----2D----2D----2D----2D----2D----2D----2D----2D----2D----2D----2D----2D
  The code is running with the 2D cutoff
  Please refer to:
  Sohier, T., Calandra, M., & Mauri, F. (2017), 
  Density functional perturbation theory for gated two-dimensional heterostructu
 res:
  Theoretical developments and application to flexural phonons in graphene.
  Physical Review B, 96(7), 75448. https://doi.org/10.1103/PhysRevB.96.075448
 ----2D----2D----2D----2D----2D----2D----2D----2D----2D----2D----2D----2D
     Generating pointlists ...
     new r_m :   0.1637 (alat units)  2.1245 (a.u.) for type    1
     new r_m :   0.1637 (alat units)  2.1245 (a.u.) for type    2

     Initial potential from superposition of free atoms

     starting charge     111.9912, renormalised to     112.0000

     negative rho (up, down):  1.761E-07 1.371E-07
     Starting wfcs are   80 randomized atomic wfcs

     total cpu time spent up to now is       23.1 secs

     Self-consistent Calculation

     iteration #  1     ecut=    90.00 Ry     beta= 0.70
     Davidson diagonalization with overlap

---- Real-time Memory Report at c_bands before calling an iterative solver
           347 MiB given to the printing process from OS
             0 MiB allocation reported by mallinfo(arena+hblkhd)
        107217 MiB available memory on the node where the printing process lives
------------------
     c_bands:  3 eigenvalues not converged
     c_bands:  4 eigenvalues not converged
     c_bands:  5 eigenvalues not converged
     c_bands:  3 eigenvalues not converged
     c_bands:  1 eigenvalues not converged
     c_bands:  1 eigenvalues not converged
     c_bands:  3 eigenvalues not converged
     c_bands:  3 eigenvalues not converged
     c_bands:  4 eigenvalues not converged
     c_bands:  1 eigenvalues not converged
     ethr =  5.00E-06,  avg # of iterations = 18.3

     total cpu time spent up to now is      271.4 secs

     total energy              =   -1415.77347025 Ry
     estimated scf accuracy    <       8.48735272 Ry

     total magnetization       =    10.10 Bohr mag/cell
     absolute magnetization    =    11.55 Bohr mag/cell

     iteration #  2     ecut=    90.00 Ry     beta= 0.70
     Davidson diagonalization with overlap

---- Real-time Memory Report at c_bands before calling an iterative solver
           387 MiB given to the printing process from OS
             0 MiB allocation reported by mallinfo(arena+hblkhd)
        106644 MiB available memory on the node where the printing process lives
------------------
     ethr =  7.58E-03,  avg # of iterations =  7.4

     total cpu time spent up to now is      379.5 secs

     total energy              =   -1413.77644416 Ry
     estimated scf accuracy    <      85.60778555 Ry

     total magnetization       =    -2.78 Bohr mag/cell
     absolute magnetization    =     3.64 Bohr mag/cell

     iteration #  3     ecut=    90.00 Ry     beta= 0.70
     Davidson diagonalization with overlap

---- Real-time Memory Report at c_bands before calling an iterative solver
           392 MiB given to the printing process from OS
             0 MiB allocation reported by mallinfo(arena+hblkhd)
        106429 MiB available memory on the node where the printing process lives
------------------
     ethr =  7.58E-03,  avg # of iterations =  7.2

     total cpu time spent up to now is      474.3 secs

     total energy              =   -1419.19563804 Ry
     estimated scf accuracy    <       0.93708478 Ry

     total magnetization       =     2.47 Bohr mag/cell
     absolute magnetization    =    14.01 Bohr mag/cell

     iteration #  4     ecut=    90.00 Ry     beta= 0.70
     Davidson diagonalization with overlap

---- Real-time Memory Report at c_bands before calling an iterative solver
           395 MiB given to the printing process from OS
             0 MiB allocation reported by mallinfo(arena+hblkhd)
        106568 MiB available memory on the node where the printing process lives
------------------
     ethr =  8.37E-04,  avg # of iterations =  8.4

     total cpu time spent up to now is      576.3 secs

     total energy              =   -1419.89834610 Ry
     estimated scf accuracy    <       2.75218575 Ry

     total magnetization       =    -7.87 Bohr mag/cell
     absolute magnetization    =    22.37 Bohr mag/cell

     iteration #  5     ecut=    90.00 Ry     beta= 0.70
     Davidson diagonalization with overlap

---- Real-time Memory Report at c_bands before calling an iterative solver
           398 MiB given to the printing process from OS
             0 MiB allocation reported by mallinfo(arena+hblkhd)
        106227 MiB available memory on the node where the printing process lives
------------------
     ethr =  8.37E-04,  avg # of iterations =  3.6

     total cpu time spent up to now is      650.3 secs

     total energy              =   -1420.28571214 Ry
     estimated scf accuracy    <       0.64081850 Ry

     total magnetization       =   -13.68 Bohr mag/cell
     absolute magnetization    =    26.12 Bohr mag/cell

     iteration #  6     ecut=    90.00 Ry     beta= 0.70
     Davidson diagonalization with overlap

---- Real-time Memory Report at c_bands before calling an iterative solver
           400 MiB given to the printing process from OS
             0 MiB allocation reported by mallinfo(arena+hblkhd)
        106200 MiB available memory on the node where the printing process lives
------------------
     ethr =  5.72E-04,  avg # of iterations =  1.5

     total cpu time spent up to now is      711.0 secs

     total energy              =   -1420.21261342 Ry
     estimated scf accuracy    <       0.47615550 Ry

     total magnetization       =   -16.26 Bohr mag/cell
     absolute magnetization    =    29.27 Bohr mag/cell

     iteration #  7     ecut=    90.00 Ry     beta= 0.70
     Davidson diagonalization with overlap

---- Real-time Memory Report at c_bands before calling an iterative solver
           402 MiB given to the printing process from OS
             0 MiB allocation reported by mallinfo(arena+hblkhd)
        106152 MiB available memory on the node where the printing process lives
------------------
     ethr =  4.25E-04,  avg # of iterations =  1.2

     negative rho (up, down):  6.577E-07 8.113E-09

     total cpu time spent up to now is      768.0 secs

     total energy              =   -1420.40613248 Ry
     estimated scf accuracy    <       0.69459914 Ry

     total magnetization       =   -14.75 Bohr mag/cell
     absolute magnetization    =    28.14 Bohr mag/cell

     iteration #  8     ecut=    90.00 Ry     beta= 0.70
     Davidson diagonalization with overlap

---- Real-time Memory Report at c_bands before calling an iterative solver
           404 MiB given to the printing process from OS
             0 MiB allocation reported by mallinfo(arena+hblkhd)
        106094 MiB available memory on the node where the printing process lives
------------------
     c_bands:  1 eigenvalues not converged
     ethr =  4.25E-04,  avg # of iterations =  6.1

     negative rho (up, down):  9.177E-06 0.000E+00

     total cpu time spent up to now is      857.4 secs

     total energy              =   -1420.67998234 Ry
     estimated scf accuracy    <       0.41174257 Ry

     total magnetization       =   -20.29 Bohr mag/cell
     absolute magnetization    =    33.83 Bohr mag/cell

     iteration #  9     ecut=    90.00 Ry     beta= 0.70
     Davidson diagonalization with overlap

---- Real-time Memory Report at c_bands before calling an iterative solver
           406 MiB given to the printing process from OS
             0 MiB allocation reported by mallinfo(arena+hblkhd)
        106066 MiB available memory on the node where the printing process lives
------------------
     ethr =  3.68E-04,  avg # of iterations =  3.7

     negative rho (up, down):  9.025E-07 0.000E+00

     total cpu time spent up to now is      923.4 secs

     total energy              =   -1420.77016911 Ry
     estimated scf accuracy    <       0.09246069 Ry

     total magnetization       =   -20.76 Bohr mag/cell
     absolute magnetization    =    33.65 Bohr mag/cell

     iteration # 10     ecut=    90.00 Ry     beta= 0.70
     Davidson diagonalization with overlap

---- Real-time Memory Report at c_bands before calling an iterative solver
           409 MiB given to the printing process from OS
             0 MiB allocation reported by mallinfo(arena+hblkhd)
        105985 MiB available memory on the node where the printing process lives
------------------
     c_bands:  1 eigenvalues not converged
     c_bands:  1 eigenvalues not converged
     c_bands:  1 eigenvalues not converged
     ethr =  8.26E-05,  avg # of iterations =  8.9

     total cpu time spent up to now is     1009.7 secs

     total energy              =   -1420.78718175 Ry
     estimated scf accuracy    <       0.04969846 Ry

     total magnetization       =   -20.52 Bohr mag/cell
     absolute magnetization    =    33.88 Bohr mag/cell

     iteration # 11     ecut=    90.00 Ry     beta= 0.70
     Davidson diagonalization with overlap

---- Real-time Memory Report at c_bands before calling an iterative solver
           411 MiB given to the printing process from OS
             0 MiB allocation reported by mallinfo(arena+hblkhd)
        105950 MiB available memory on the node where the printing process lives
------------------
     c_bands:  1 eigenvalues not converged
     ethr =  4.44E-05,  avg # of iterations =  3.8

     total cpu time spent up to now is     1075.6 secs

     total energy              =   -1420.79812570 Ry
     estimated scf accuracy    <       0.06081667 Ry

     total magnetization       =   -20.53 Bohr mag/cell
     absolute magnetization    =    33.81 Bohr mag/cell

     iteration # 12     ecut=    90.00 Ry     beta= 0.70
     Davidson diagonalization with overlap

---- Real-time Memory Report at c_bands before calling an iterative solver
           411 MiB given to the printing process from OS
             0 MiB allocation reported by mallinfo(arena+hblkhd)
        105879 MiB available memory on the node where the printing process lives
------------------
     ethr =  4.44E-05,  avg # of iterations =  2.5

     total cpu time spent up to now is     1137.0 secs

     total energy              =   -1420.79944670 Ry
     estimated scf accuracy    <       0.00727183 Ry

     total magnetization       =   -20.21 Bohr mag/cell
     absolute magnetization    =    33.89 Bohr mag/cell

     iteration # 13     ecut=    90.00 Ry     beta= 0.70
     Davidson diagonalization with overlap

---- Real-time Memory Report at c_bands before calling an iterative solver
           411 MiB given to the printing process from OS
             0 MiB allocation reported by mallinfo(arena+hblkhd)
        105858 MiB available memory on the node where the printing process lives
------------------
     c_bands:  3 eigenvalues not converged
     c_bands:  1 eigenvalues not converged
     c_bands:  1 eigenvalues not converged
     c_bands:  2 eigenvalues not converged
     c_bands:  1 eigenvalues not converged
     c_bands:  3 eigenvalues not converged
     c_bands:  1 eigenvalues not converged
     c_bands:  2 eigenvalues not converged
     c_bands:  2 eigenvalues not converged
     c_bands:  4 eigenvalues not converged
     c_bands:  3 eigenvalues not converged
     c_bands:  4 eigenvalues not converged
     c_bands:  2 eigenvalues not converged
     c_bands:  4 eigenvalues not converged
     ethr =  6.49E-06,  avg # of iterations = 13.3

     total cpu time spent up to now is     1260.1 secs

     total energy              =   -1420.80292638 Ry
     estimated scf accuracy    <       0.00396301 Ry

     total magnetization       =   -19.98 Bohr mag/cell
     absolute magnetization    =    33.77 Bohr mag/cell

     iteration # 14     ecut=    90.00 Ry     beta= 0.70
     Davidson diagonalization with overlap

---- Real-time Memory Report at c_bands before calling an iterative solver
           412 MiB given to the printing process from OS
             0 MiB allocation reported by mallinfo(arena+hblkhd)
        105792 MiB available memory on the node where the printing process lives
------------------
     c_bands:  2 eigenvalues not converged
     c_bands:  1 eigenvalues not converged
     c_bands:  1 eigenvalues not converged
     c_bands:  1 eigenvalues not converged
     c_bands:  3 eigenvalues not converged
     c_bands:  1 eigenvalues not converged
     c_bands:  3 eigenvalues not converged
     c_bands:  2 eigenvalues not converged
     c_bands:  2 eigenvalues not converged
     ethr =  3.54E-06,  avg # of iterations =  6.3

     total cpu time spent up to now is     1329.0 secs

     total energy              =   -1420.80318270 Ry
     estimated scf accuracy    <       0.00168955 Ry

     total magnetization       =   -20.04 Bohr mag/cell
     absolute magnetization    =    33.77 Bohr mag/cell

     iteration # 15     ecut=    90.00 Ry     beta= 0.70
     Davidson diagonalization with overlap

---- Real-time Memory Report at c_bands before calling an iterative solver
           412 MiB given to the printing process from OS
             0 MiB allocation reported by mallinfo(arena+hblkhd)
        105742 MiB available memory on the node where the printing process lives
------------------
     c_bands:  1 eigenvalues not converged
     c_bands:  2 eigenvalues not converged
     c_bands:  1 eigenvalues not converged
     c_bands:  1 eigenvalues not converged
     c_bands:  1 eigenvalues not converged
     c_bands:  2 eigenvalues not converged
     c_bands:  1 eigenvalues not converged
     c_bands:  2 eigenvalues not converged
     c_bands:  1 eigenvalues not converged
     c_bands:  4 eigenvalues not converged
     c_bands:  1 eigenvalues not converged
     c_bands:  2 eigenvalues not converged
     ethr =  1.51E-06,  avg # of iterations = 10.9

     total cpu time spent up to now is     1410.9 secs

     total energy              =   -1420.80354840 Ry
     estimated scf accuracy    <       0.00044558 Ry

     total magnetization       =   -20.16 Bohr mag/cell
     absolute magnetization    =    33.76 Bohr mag/cell

     iteration # 16     ecut=    90.00 Ry     beta= 0.70
     Davidson diagonalization with overlap

---- Real-time Memory Report at c_bands before calling an iterative solver
           412 MiB given to the printing process from OS
             0 MiB allocation reported by mallinfo(arena+hblkhd)
        107630 MiB available memory on the node where the printing process lives
------------------
     c_bands:  1 eigenvalues not converged
     c_bands:  1 eigenvalues not converged
     c_bands:  1 eigenvalues not converged
     c_bands:  3 eigenvalues not converged
     c_bands:  3 eigenvalues not converged
     c_bands:  2 eigenvalues not converged
     c_bands:  2 eigenvalues not converged
     c_bands:  3 eigenvalues not converged
     c_bands:  2 eigenvalues not converged
     c_bands:  2 eigenvalues not converged
     c_bands:  2 eigenvalues not converged
     c_bands:  3 eigenvalues not converged
     ethr =  3.98E-07,  avg # of iterations = 12.3

     total cpu time spent up to now is     1473.4 secs

     total energy              =   -1420.80358213 Ry
     estimated scf accuracy    <       0.00045266 Ry

     total magnetization       =   -20.17 Bohr mag/cell
     absolute magnetization    =    33.78 Bohr mag/cell

     iteration # 17     ecut=    90.00 Ry     beta= 0.70
     Davidson diagonalization with overlap

---- Real-time Memory Report at c_bands before calling an iterative solver
           412 MiB given to the printing process from OS
             0 MiB allocation reported by mallinfo(arena+hblkhd)
        107591 MiB available memory on the node where the printing process lives
------------------
     c_bands:  1 eigenvalues not converged
     c_bands:  1 eigenvalues not converged
     c_bands:  1 eigenvalues not converged
     c_bands:  1 eigenvalues not converged
     c_bands:  1 eigenvalues not converged
     c_bands:  1 eigenvalues not converged
     c_bands:  1 eigenvalues not converged
     c_bands:  2 eigenvalues not converged
     c_bands:  2 eigenvalues not converged
     c_bands:  2 eigenvalues not converged
     ethr =  3.98E-07,  avg # of iterations =  6.7

     total cpu time spent up to now is     1517.8 secs

     total energy              =   -1420.80358062 Ry
     estimated scf accuracy    <       0.00016902 Ry

     total magnetization       =   -20.16 Bohr mag/cell
     absolute magnetization    =    33.79 Bohr mag/cell

     iteration # 18     ecut=    90.00 Ry     beta= 0.70
     Davidson diagonalization with overlap

---- Real-time Memory Report at c_bands before calling an iterative solver
           412 MiB given to the printing process from OS
             0 MiB allocation reported by mallinfo(arena+hblkhd)
        107589 MiB available memory on the node where the printing process lives
------------------
     c_bands:  1 eigenvalues not converged
     c_bands:  2 eigenvalues not converged
     c_bands:  1 eigenvalues not converged
     c_bands:  1 eigenvalues not converged
     c_bands:  2 eigenvalues not converged
     c_bands:  1 eigenvalues not converged
     c_bands:  1 eigenvalues not converged
     c_bands:  1 eigenvalues not converged
     c_bands:  2 eigenvalues not converged
     c_bands:  3 eigenvalues not converged
     c_bands:  1 eigenvalues not converged
     c_bands:  1 eigenvalues not converged
     ethr =  1.51E-07,  avg # of iterations =  9.8

     total cpu time spent up to now is     1574.2 secs

     total energy              =   -1420.80358450 Ry
     estimated scf accuracy    <       0.00003920 Ry

     total magnetization       =   -20.15 Bohr mag/cell
     absolute magnetization    =    33.79 Bohr mag/cell

     iteration # 19     ecut=    90.00 Ry     beta= 0.70
     Davidson diagonalization with overlap

---- Real-time Memory Report at c_bands before calling an iterative solver
           412 MiB given to the printing process from OS
             0 MiB allocation reported by mallinfo(arena+hblkhd)
        107573 MiB available memory on the node where the printing process lives
------------------
     c_bands:  1 eigenvalues not converged
     c_bands:  1 eigenvalues not converged
     c_bands:  1 eigenvalues not converged
     c_bands:  1 eigenvalues not converged
     c_bands:  1 eigenvalues not converged
     c_bands:  2 eigenvalues not converged
     c_bands:  2 eigenvalues not converged
     c_bands:  5 eigenvalues not converged
     c_bands:  2 eigenvalues not converged
     c_bands:  2 eigenvalues not converged
     c_bands:  1 eigenvalues not converged
     c_bands:  3 eigenvalues not converged
     c_bands:  2 eigenvalues not converged
     c_bands:  1 eigenvalues not converged
     c_bands:  2 eigenvalues not converged
     c_bands:  2 eigenvalues not converged
     c_bands:  3 eigenvalues not converged
     c_bands:  1 eigenvalues not converged
     ethr =  3.50E-08,  avg # of iterations = 12.9

     total cpu time spent up to now is     1646.4 secs

     total energy              =   -1420.80359535 Ry
     estimated scf accuracy    <       0.00000366 Ry

     total magnetization       =   -20.15 Bohr mag/cell
     absolute magnetization    =    33.80 Bohr mag/cell

     iteration # 20     ecut=    90.00 Ry     beta= 0.70
     Davidson diagonalization with overlap

---- Real-time Memory Report at c_bands before calling an iterative solver
           413 MiB given to the printing process from OS
             0 MiB allocation reported by mallinfo(arena+hblkhd)
        107545 MiB available memory on the node where the printing process lives
------------------
     c_bands:  1 eigenvalues not converged
     c_bands:  1 eigenvalues not converged
     c_bands:  2 eigenvalues not converged
     c_bands:  4 eigenvalues not converged
     c_bands:  3 eigenvalues not converged
     c_bands:  2 eigenvalues not converged
     c_bands:  2 eigenvalues not converged
     c_bands:  1 eigenvalues not converged
     c_bands:  5 eigenvalues not converged
     c_bands:  3 eigenvalues not converged
     c_bands:  3 eigenvalues not converged
     c_bands:  1 eigenvalues not converged
     c_bands:  1 eigenvalues not converged
     c_bands:  4 eigenvalues not converged
     c_bands:  3 eigenvalues not converged
     c_bands:  4 eigenvalues not converged
     c_bands:  4 eigenvalues not converged
     c_bands:  3 eigenvalues not converged
     c_bands:  2 eigenvalues not converged
     c_bands:  1 eigenvalues not converged
     ethr =  3.26E-09,  avg # of iterations = 14.4

     total cpu time spent up to now is     1724.9 secs

     total energy              =   -1420.80359630 Ry
     estimated scf accuracy    <       0.00000093 Ry

     total magnetization       =   -20.15 Bohr mag/cell
     absolute magnetization    =    33.80 Bohr mag/cell

     iteration # 21     ecut=    90.00 Ry     beta= 0.70
     Davidson diagonalization with overlap

---- Real-time Memory Report at c_bands before calling an iterative solver
           413 MiB given to the printing process from OS
             0 MiB allocation reported by mallinfo(arena+hblkhd)
        107561 MiB available memory on the node where the printing process lives
------------------
     c_bands:  1 eigenvalues not converged
     c_bands:  1 eigenvalues not converged
     c_bands:  1 eigenvalues not converged
     c_bands:  3 eigenvalues not converged
     c_bands:  3 eigenvalues not converged
     c_bands:  2 eigenvalues not converged
     c_bands:  2 eigenvalues not converged
     c_bands:  2 eigenvalues not converged
     c_bands:  3 eigenvalues not converged
     c_bands:  2 eigenvalues not converged
     c_bands:  1 eigenvalues not converged
     c_bands:  2 eigenvalues not converged
     c_bands:  3 eigenvalues not converged
     c_bands:  2 eigenvalues not converged
     c_bands:  3 eigenvalues not converged
     c_bands:  3 eigenvalues not converged
     c_bands:  4 eigenvalues not converged
     c_bands:  1 eigenvalues not converged
     ethr =  8.31E-10,  avg # of iterations = 13.3

     total cpu time spent up to now is     1791.9 secs

     total energy              =   -1420.80359649 Ry
     estimated scf accuracy    <       0.00000005 Ry

     total magnetization       =   -20.15 Bohr mag/cell
     absolute magnetization    =    33.80 Bohr mag/cell

     iteration # 22     ecut=    90.00 Ry     beta= 0.70
     Davidson diagonalization with overlap

---- Real-time Memory Report at c_bands before calling an iterative solver
           413 MiB given to the printing process from OS
             0 MiB allocation reported by mallinfo(arena+hblkhd)
        107565 MiB available memory on the node where the printing process lives
------------------
     c_bands:  3 eigenvalues not converged
     c_bands:  5 eigenvalues not converged
     c_bands:  4 eigenvalues not converged
     c_bands:  3 eigenvalues not converged
     c_bands:  3 eigenvalues not converged
     c_bands:  4 eigenvalues not converged
     c_bands:  5 eigenvalues not converged
     c_bands:  3 eigenvalues not converged
     c_bands:  2 eigenvalues not converged
     c_bands:  3 eigenvalues not converged
     c_bands:  5 eigenvalues not converged
     c_bands:  2 eigenvalues not converged
     c_bands:  1 eigenvalues not converged
     c_bands:  3 eigenvalues not converged
     c_bands:  2 eigenvalues not converged
     c_bands:  4 eigenvalues not converged
     c_bands:  4 eigenvalues not converged
     c_bands:  5 eigenvalues not converged
     c_bands:  4 eigenvalues not converged
     ethr =  4.56E-11,  avg # of iterations = 16.7

     total cpu time spent up to now is     1888.1 secs

     total energy              =   -1420.80359652 Ry
     estimated scf accuracy    <       0.00000007 Ry

     total magnetization       =   -20.15 Bohr mag/cell
     absolute magnetization    =    33.80 Bohr mag/cell

     iteration # 23     ecut=    90.00 Ry     beta= 0.70
     Davidson diagonalization with overlap

---- Real-time Memory Report at c_bands before calling an iterative solver
           413 MiB given to the printing process from OS
             0 MiB allocation reported by mallinfo(arena+hblkhd)
        107546 MiB available memory on the node where the printing process lives
------------------
     c_bands:  1 eigenvalues not converged
     c_bands:  1 eigenvalues not converged
     c_bands:  1 eigenvalues not converged
     c_bands:  1 eigenvalues not converged
     c_bands:  2 eigenvalues not converged
     c_bands:  2 eigenvalues not converged
     c_bands:  1 eigenvalues not converged
     c_bands:  1 eigenvalues not converged
     c_bands:  1 eigenvalues not converged
     c_bands:  3 eigenvalues not converged
     c_bands:  2 eigenvalues not converged
     c_bands:  1 eigenvalues not converged
     c_bands:  1 eigenvalues not converged
     c_bands:  2 eigenvalues not converged
     c_bands:  1 eigenvalues not converged
     c_bands:  3 eigenvalues not converged
     c_bands:  3 eigenvalues not converged
     c_bands:  4 eigenvalues not converged
     c_bands:  3 eigenvalues not converged
     ethr =  4.56E-11,  avg # of iterations = 11.0

     total cpu time spent up to now is     1946.5 secs

     total energy              =   -1420.80359653 Ry
     estimated scf accuracy    <          2.0E-09 Ry

     total magnetization       =   -20.15 Bohr mag/cell
     absolute magnetization    =    33.80 Bohr mag/cell

     iteration # 24     ecut=    90.00 Ry     beta= 0.70
     Davidson diagonalization with overlap

---- Real-time Memory Report at c_bands before calling an iterative solver
           413 MiB given to the printing process from OS
             0 MiB allocation reported by mallinfo(arena+hblkhd)
        107540 MiB available memory on the node where the printing process lives
------------------
     c_bands:  1 eigenvalues not converged
     c_bands:  1 eigenvalues not converged
     c_bands:  1 eigenvalues not converged
     c_bands:  1 eigenvalues not converged
     c_bands:  4 eigenvalues not converged
     c_bands:  2 eigenvalues not converged
     c_bands:  3 eigenvalues not converged
     c_bands:  1 eigenvalues not converged
     c_bands:  4 eigenvalues not converged
     c_bands:  4 eigenvalues not converged
     c_bands:  3 eigenvalues not converged
     c_bands:  3 eigenvalues not converged
     c_bands:  2 eigenvalues not converged
     c_bands:  3 eigenvalues not converged
     c_bands:  3 eigenvalues not converged
     c_bands:  4 eigenvalues not converged
     c_bands:  3 eigenvalues not converged
     c_bands:  4 eigenvalues not converged
     c_bands:  4 eigenvalues not converged
     c_bands:  1 eigenvalues not converged
     ethr =  1.79E-12,  avg # of iterations = 16.9

     total cpu time spent up to now is     2047.8 secs

     total energy              =   -1420.80359653 Ry
     estimated scf accuracy    <          4.7E-09 Ry

     total magnetization       =   -20.15 Bohr mag/cell
     absolute magnetization    =    33.80 Bohr mag/cell

     iteration # 25     ecut=    90.00 Ry     beta= 0.70
     Davidson diagonalization with overlap

---- Real-time Memory Report at c_bands before calling an iterative solver
           413 MiB given to the printing process from OS
             0 MiB allocation reported by mallinfo(arena+hblkhd)
        107538 MiB available memory on the node where the printing process lives
------------------
     c_bands:  1 eigenvalues not converged
     c_bands:  1 eigenvalues not converged
     c_bands:  1 eigenvalues not converged
     c_bands:  1 eigenvalues not converged
     c_bands:  2 eigenvalues not converged
     c_bands:  2 eigenvalues not converged
     c_bands:  1 eigenvalues not converged
     c_bands:  1 eigenvalues not converged
     c_bands:  1 eigenvalues not converged
     c_bands:  3 eigenvalues not converged
     c_bands:  3 eigenvalues not converged
     c_bands:  2 eigenvalues not converged
     c_bands:  1 eigenvalues not converged
     c_bands:  2 eigenvalues not converged
     c_bands:  2 eigenvalues not converged
     c_bands:  4 eigenvalues not converged
     c_bands:  3 eigenvalues not converged
     c_bands:  4 eigenvalues not converged
     c_bands:  3 eigenvalues not converged
     ethr =  1.79E-12,  avg # of iterations = 12.8

     total cpu time spent up to now is     2115.4 secs

     total energy              =   -1420.80359653 Ry
     estimated scf accuracy    <          2.1E-10 Ry

     total magnetization       =   -20.15 Bohr mag/cell
     absolute magnetization    =    33.80 Bohr mag/cell

     iteration # 26     ecut=    90.00 Ry     beta= 0.70
     Davidson diagonalization with overlap

---- Real-time Memory Report at c_bands before calling an iterative solver
           413 MiB given to the printing process from OS
             0 MiB allocation reported by mallinfo(arena+hblkhd)
        107536 MiB available memory on the node where the printing process lives
------------------
     c_bands:  1 eigenvalues not converged
     c_bands:  1 eigenvalues not converged
     c_bands:  2 eigenvalues not converged
     c_bands:  2 eigenvalues not converged
     c_bands:  2 eigenvalues not converged
     c_bands:  2 eigenvalues not converged
     c_bands:  3 eigenvalues not converged
     c_bands:  1 eigenvalues not converged
     c_bands:  2 eigenvalues not converged
     c_bands:  2 eigenvalues not converged
     c_bands:  2 eigenvalues not converged
     c_bands:  3 eigenvalues not converged
     c_bands:  2 eigenvalues not converged
     c_bands:  2 eigenvalues not converged
     c_bands:  3 eigenvalues not converged
     c_bands:  4 eigenvalues not converged
     c_bands:  3 eigenvalues not converged
     c_bands:  4 eigenvalues not converged
     c_bands:  2 eigenvalues not converged
     ethr =  1.83E-13,  avg # of iterations = 13.4

     total cpu time spent up to now is     2185.4 secs

     total energy              =   -1420.80359653 Ry
     estimated scf accuracy    <          1.2E-10 Ry

     total magnetization       =   -20.15 Bohr mag/cell
     absolute magnetization    =    33.80 Bohr mag/cell

     iteration # 27     ecut=    90.00 Ry     beta= 0.70
     Davidson diagonalization with overlap

---- Real-time Memory Report at c_bands before calling an iterative solver
           414 MiB given to the printing process from OS
             0 MiB allocation reported by mallinfo(arena+hblkhd)
        107532 MiB available memory on the node where the printing process lives
------------------
     c_bands:  1 eigenvalues not converged
     c_bands:  1 eigenvalues not converged
     c_bands:  1 eigenvalues not converged
     c_bands:  1 eigenvalues not converged
     c_bands:  2 eigenvalues not converged
     c_bands:  1 eigenvalues not converged
     c_bands:  1 eigenvalues not converged
     c_bands:  1 eigenvalues not converged
     c_bands:  1 eigenvalues not converged
     c_bands:  2 eigenvalues not converged
     c_bands:  2 eigenvalues not converged
     c_bands:  1 eigenvalues not converged
     c_bands:  1 eigenvalues not converged
     c_bands:  2 eigenvalues not converged
     c_bands:  2 eigenvalues not converged
     c_bands:  3 eigenvalues not converged
     c_bands:  3 eigenvalues not converged
     c_bands:  3 eigenvalues not converged
     c_bands:  2 eigenvalues not converged
     ethr =  1.07E-13,  avg # of iterations = 11.4

     total cpu time spent up to now is     2244.3 secs

     total energy              =   -1420.80359653 Ry
     estimated scf accuracy    <          3.5E-12 Ry

     total magnetization       =   -20.15 Bohr mag/cell
     absolute magnetization    =    33.80 Bohr mag/cell

     iteration # 28     ecut=    90.00 Ry     beta= 0.70
     Davidson diagonalization with overlap

---- Real-time Memory Report at c_bands before calling an iterative solver
           414 MiB given to the printing process from OS
             0 MiB allocation reported by mallinfo(arena+hblkhd)
        107528 MiB available memory on the node where the printing process lives
------------------
     c_bands:  1 eigenvalues not converged
     c_bands:  1 eigenvalues not converged
     c_bands:  1 eigenvalues not converged
     c_bands:  2 eigenvalues not converged
     c_bands:  1 eigenvalues not converged
     c_bands:  1 eigenvalues not converged
     c_bands:  1 eigenvalues not converged
     c_bands:  1 eigenvalues not converged
     c_bands:  2 eigenvalues not converged
     c_bands:  2 eigenvalues not converged
     c_bands:  1 eigenvalues not converged
     c_bands:  1 eigenvalues not converged
     c_bands:  2 eigenvalues not converged
     c_bands:  2 eigenvalues not converged
     c_bands:  3 eigenvalues not converged
     c_bands:  3 eigenvalues not converged
     c_bands:  3 eigenvalues not converged
     c_bands:  2 eigenvalues not converged
     ethr =  1.00E-13,  avg # of iterations = 10.6

     total cpu time spent up to now is     2296.1 secs

     total energy              =   -1420.80359653 Ry
     estimated scf accuracy    <          1.3E-12 Ry

     total magnetization       =   -20.15 Bohr mag/cell
     absolute magnetization    =    33.80 Bohr mag/cell

     iteration # 29     ecut=    90.00 Ry     beta= 0.70
     Davidson diagonalization with overlap

---- Real-time Memory Report at c_bands before calling an iterative solver
           414 MiB given to the printing process from OS
             0 MiB allocation reported by mallinfo(arena+hblkhd)
        107518 MiB available memory on the node where the printing process lives
------------------
     c_bands:  1 eigenvalues not converged
     c_bands:  1 eigenvalues not converged
     c_bands:  1 eigenvalues not converged
     c_bands:  2 eigenvalues not converged
     c_bands:  1 eigenvalues not converged
     c_bands:  1 eigenvalues not converged
     c_bands:  1 eigenvalues not converged
     c_bands:  1 eigenvalues not converged
     c_bands:  2 eigenvalues not converged
     c_bands:  2 eigenvalues not converged
     c_bands:  1 eigenvalues not converged
     c_bands:  1 eigenvalues not converged
     c_bands:  2 eigenvalues not converged
     c_bands:  1 eigenvalues not converged
     c_bands:  2 eigenvalues not converged
     c_bands:  3 eigenvalues not converged
     c_bands:  3 eigenvalues not converged
     c_bands:  2 eigenvalues not converged
     ethr =  1.00E-13,  avg # of iterations = 10.0

     total cpu time spent up to now is     2345.7 secs

     total energy              =   -1420.80359653 Ry
     estimated scf accuracy    <          4.1E-13 Ry

     total magnetization       =   -20.15 Bohr mag/cell
     absolute magnetization    =    33.80 Bohr mag/cell

     iteration # 30     ecut=    90.00 Ry     beta= 0.70
     Davidson diagonalization with overlap

---- Real-time Memory Report at c_bands before calling an iterative solver
           414 MiB given to the printing process from OS
             0 MiB allocation reported by mallinfo(arena+hblkhd)
        107511 MiB available memory on the node where the printing process lives
------------------
     c_bands:  1 eigenvalues not converged
     c_bands:  1 eigenvalues not converged
     c_bands:  2 eigenvalues not converged
     c_bands:  1 eigenvalues not converged
     c_bands:  1 eigenvalues not converged
     c_bands:  1 eigenvalues not converged
     c_bands:  2 eigenvalues not converged
     c_bands:  2 eigenvalues not converged
     c_bands:  1 eigenvalues not converged
     c_bands:  1 eigenvalues not converged
     c_bands:  2 eigenvalues not converged
     c_bands:  1 eigenvalues not converged
     c_bands:  2 eigenvalues not converged
     c_bands:  2 eigenvalues not converged
     c_bands:  3 eigenvalues not converged
     c_bands:  2 eigenvalues not converged
     ethr =  1.00E-13,  avg # of iterations =  9.8

     total cpu time spent up to now is     2394.1 secs

     total energy              =   -1420.80359653 Ry
     estimated scf accuracy    <          1.1E-13 Ry

     total magnetization       =   -20.15 Bohr mag/cell
     absolute magnetization    =    33.80 Bohr mag/cell

     iteration # 31     ecut=    90.00 Ry     beta= 0.70
     Davidson diagonalization with overlap

---- Real-time Memory Report at c_bands before calling an iterative solver
           414 MiB given to the printing process from OS
             0 MiB allocation reported by mallinfo(arena+hblkhd)
        107500 MiB available memory on the node where the printing process lives
------------------
     c_bands:  1 eigenvalues not converged
     c_bands:  1 eigenvalues not converged
     c_bands:  2 eigenvalues not converged
     c_bands:  1 eigenvalues not converged
     c_bands:  1 eigenvalues not converged
     c_bands:  1 eigenvalues not converged
     c_bands:  1 eigenvalues not converged
     c_bands:  2 eigenvalues not converged
     c_bands:  1 eigenvalues not converged
     c_bands:  1 eigenvalues not converged
     c_bands:  2 eigenvalues not converged
     c_bands:  1 eigenvalues not converged
     c_bands:  1 eigenvalues not converged
     c_bands:  2 eigenvalues not converged
     c_bands:  3 eigenvalues not converged
     c_bands:  2 eigenvalues not converged
     ethr =  1.00E-13,  avg # of iterations =  9.0
 
     Magnetic moment per site  (integrated on atomic sphere of radius R)
     atom   1 (R=0.164)  charge= 12.4601  magn=  3.2183
     atom   2 (R=0.164)  charge= 12.4601  magn=  3.2183
     atom   3 (R=0.164)  charge= 12.3477  magn= -3.8804
     atom   4 (R=0.164)  charge= 12.3477  magn= -3.8804
     atom   5 (R=0.164)  charge= 12.3477  magn= -3.8804
     atom   6 (R=0.164)  charge= 12.3477  magn= -3.8804
     atom   7 (R=0.164)  charge= 12.3477  magn= -3.8804
     atom   8 (R=0.164)  charge= 12.3477  magn= -3.8804

     total cpu time spent up to now is     2442.9 secs

     End of self-consistent calculation

 ------ SPIN UP ------------


          k = 0.0000 0.0000 0.0000 ( 52593 PWs)   bands (ev):

   -74.9050 -74.9047 -71.0904 -71.0903 -71.0901 -71.0901 -71.0900 -71.0900
   -46.6537 -46.6537 -46.6510 -46.6510 -46.6506 -46.6497 -42.8972 -42.8924
   -42.8920 -42.8920 -42.8908 -42.8908 -42.8795 -42.8766 -42.8766 -42.8744
   -42.8744 -42.8734 -42.7968 -42.7952 -42.7952 -42.7939 -42.7939 -42.7938
    -7.3657  -4.9448  -4.7570  -4.7570  -4.6789  -4.6767  -4.6597  -4.6597
    -4.5833  -4.5833  -4.5039  -4.5039  -3.8739  -3.1977  -3.1977  -2.6407
    -2.2331  -2.1834  -2.1834  -1.6423  -1.4383  -1.4286  -1.4286  -1.3272
    -1.3272  -1.2695  -1.2204  -1.1465  -1.1465  -1.1275  -1.0054  -0.7792
    -0.7431  -0.7431  -0.6428

     occupation numbers 
     1.0000   1.0000   1.0000   1.0000   1.0000   1.0000   1.0000   1.0000
     1.0000   1.0000   1.0000   1.0000   1.0000   1.0000   1.0000   1.0000
     1.0000   1.0000   1.0000   1.0000   1.0000   1.0000   1.0000   1.0000
     1.0000   1.0000   1.0000   1.0000   1.0000   1.0000   1.0000   1.0000
     1.0000   1.0000   1.0000   1.0000   1.0000   1.0000   1.0000   1.0000
     1.0000   1.0000   1.0000   1.0000   1.0000   0.0000   0.0000   0.0000
     0.0000   0.0000   0.0000   0.0000   0.0000   0.0000   0.0000   0.0000
     0.0000   0.0000   0.0000   0.0000   0.0000   0.0000   0.0000   0.0000
     0.0000   0.0000   0.0000

          k = 0.0000 0.0962 0.0000 ( 52628 PWs)   bands (ev):

   -74.9050 -74.9047 -71.0904 -71.0903 -71.0901 -71.0901 -71.0900 -71.0900
   -46.6537 -46.6536 -46.6511 -46.6511 -46.6506 -46.6497 -42.8972 -42.8924
   -42.8920 -42.8920 -42.8909 -42.8908 -42.8794 -42.8766 -42.8766 -42.8745
   -42.8744 -42.8733 -42.7968 -42.7952 -42.7952 -42.7939 -42.7939 -42.7938
    -7.3379  -4.9381  -4.8518  -4.7558  -4.6902  -4.6666  -4.6539  -4.6347
    -4.5953  -4.5917  -4.4912  -4.4713  -3.9174  -3.2701  -3.1767  -2.6920
    -2.3099  -2.0795  -2.0738  -1.6617  -1.4576  -1.4474  -1.4364  -1.3287
    -1.3285  -1.2586  -1.2067  -1.1455  -1.1384  -1.1351  -0.9704  -0.7806
    -0.7561  -0.7396  -0.6424

     occupation numbers 
     1.0000   1.0000   1.0000   1.0000   1.0000   1.0000   1.0000   1.0000
     1.0000   1.0000   1.0000   1.0000   1.0000   1.0000   1.0000   1.0000
     1.0000   1.0000   1.0000   1.0000   1.0000   1.0000   1.0000   1.0000
     1.0000   1.0000   1.0000   1.0000   1.0000   1.0000   1.0000   1.0000
     1.0000   1.0000   1.0000   1.0000   1.0000   1.0000   1.0000   1.0000
     1.0000   1.0000   1.0000   1.0000   1.0000   0.0001   0.0000   0.0000
     0.0000   0.0000   0.0000   0.0000   0.0000   0.0000   0.0000   0.0000
     0.0000   0.0000   0.0000   0.0000   0.0000   0.0000   0.0000   0.0000
     0.0000   0.0000   0.0000

          k = 0.0000 0.1925 0.0000 ( 52592 PWs)   bands (ev):

   -74.9050 -74.9047 -71.0904 -71.0903 -71.0902 -71.0902 -71.0900 -71.0900
   -46.6536 -46.6535 -46.6512 -46.6511 -46.6505 -46.6498 -42.8970 -42.8925
   -42.8921 -42.8920 -42.8912 -42.8906 -42.8791 -42.8768 -42.8767 -42.8746
   -42.8744 -42.8733 -42.7967 -42.7952 -42.7951 -42.7940 -42.7939 -42.7938
    -7.2555  -5.0465  -4.9207  -4.7555  -4.7340  -4.6780  -4.6516  -4.6245
    -4.5818  -4.5763  -4.4717  -4.3935  -3.9943  -3.4405  -3.1965  -2.6795
    -2.4297  -1.9416  -1.8812  -1.7242  -1.5069  -1.4632  -1.4467  -1.3462
    -1.3439  -1.2276  -1.1761  -1.1500  -1.1298  -1.1118  -0.8895  -0.7915
    -0.7820  -0.7301  -0.6385

     occupation numbers 
     1.0000   1.0000   1.0000   1.0000   1.0000   1.0000   1.0000   1.0000
     1.0000   1.0000   1.0000   1.0000   1.0000   1.0000   1.0000   1.0000
     1.0000   1.0000   1.0000   1.0000   1.0000   1.0000   1.0000   1.0000
     1.0000   1.0000   1.0000   1.0000   1.0000   1.0000   1.0000   1.0000
     1.0000   1.0000   1.0000   1.0000   1.0000   1.0000   1.0000   1.0000
     1.0000   1.0000   1.0000   1.0000   1.0000   0.4237   0.0000   0.0000
     0.0000   0.0000   0.0000   0.0000   0.0000   0.0000   0.0000   0.0000
     0.0000   0.0000   0.0000   0.0000   0.0000   0.0000   0.0000   0.0000
     0.0000   0.0000   0.0000

          k = 0.0000 0.2887 0.0000 ( 52560 PWs)   bands (ev):

   -74.9050 -74.9048 -71.0903 -71.0902 -71.0902 -71.0902 -71.0900 -71.0900
   -46.6536 -46.6533 -46.6514 -46.6511 -46.6505 -46.6498 -42.8967 -42.8925
   -42.8922 -42.8922 -42.8913 -42.8905 -42.8787 -42.8770 -42.8768 -42.8747
   -42.8743 -42.8733 -42.7965 -42.7953 -42.7951 -42.7940 -42.7939 -42.7938
    -7.1219  -5.3138  -4.8990  -4.7922  -4.7600  -4.7034  -4.6612  -4.6264
    -4.5540  -4.5169  -4.4599  -4.2759  -4.0460  -3.6413  -3.2788  -2.6182
    -2.5483  -1.8574  -1.7766  -1.7201  -1.5632  -1.4612  -1.4502  -1.3712
    -1.3650  -1.1858  -1.1804  -1.1308  -1.0956  -1.0662  -0.8486  -0.7870
    -0.7783  -0.7169  -0.6416

     occupation numbers 
     1.0000   1.0000   1.0000   1.0000   1.0000   1.0000   1.0000   1.0000
     1.0000   1.0000   1.0000   1.0000   1.0000   1.0000   1.0000   1.0000
     1.0000   1.0000   1.0000   1.0000   1.0000   1.0000   1.0000   1.0000
     1.0000   1.0000   1.0000   1.0000   1.0000   1.0000   1.0000   1.0000
     1.0000   1.0000   1.0000   1.0000   1.0000   1.0000   1.0000   1.0000
     1.0000   1.0000   1.0000   1.0000   1.0000   1.0000   0.0002   0.0000
     0.0000   0.0000   0.0000   0.0000   0.0000   0.0000   0.0000   0.0000
     0.0000   0.0000   0.0000   0.0000   0.0000   0.0000   0.0000   0.0000
     0.0000   0.0000   0.0000

          k = 0.0000 0.3849 0.0000 ( 52554 PWs)   bands (ev):

   -74.9050 -74.9048 -71.0903 -71.0902 -71.0902 -71.0902 -71.0901 -71.0900
   -46.6536 -46.6531 -46.6516 -46.6512 -46.6504 -46.6499 -42.8963 -42.8927
   -42.8925 -42.8922 -42.8913 -42.8903 -42.8783 -42.8772 -42.8769 -42.8749
   -42.8741 -42.8733 -42.7964 -42.7954 -42.7951 -42.7941 -42.7939 -42.7938
    -6.9454  -5.6171  -4.8786  -4.8459  -4.7670  -4.7313  -4.6706  -4.6220
    -4.5332  -4.4569  -4.4321  -4.1176  -4.0676  -3.8344  -3.3561  -2.8696
    -2.3818  -1.8904  -1.7320  -1.7004  -1.5605  -1.4610  -1.4221  -1.3966
    -1.3714  -1.1924  -1.1247  -1.1232  -1.0526  -1.0094  -0.9079  -0.7661
    -0.7044  -0.7003  -0.6738

     occupation numbers 
     1.0000   1.0000   1.0000   1.0000   1.0000   1.0000   1.0000   1.0000
     1.0000   1.0000   1.0000   1.0000   1.0000   1.0000   1.0000   1.0000
     1.0000   1.0000   1.0000   1.0000   1.0000   1.0000   1.0000   1.0000
     1.0000   1.0000   1.0000   1.0000   1.0000   1.0000   1.0000   1.0000
     1.0000   1.0000   1.0000   1.0000   1.0000   1.0000   1.0000   1.0000
     1.0000   1.0000   1.0000   1.0000   1.0000   1.0000   0.0257   0.0000
     0.0000   0.0000   0.0000   0.0000   0.0000   0.0000   0.0000   0.0000
     0.0000   0.0000   0.0000   0.0000   0.0000   0.0000   0.0000   0.0000
     0.0000   0.0000   0.0000

          k = 0.0000 0.4811 0.0000 ( 52534 PWs)   bands (ev):

   -74.9049 -74.9048 -71.0903 -71.0902 -71.0902 -71.0902 -71.0901 -71.0900
   -46.6536 -46.6529 -46.6518 -46.6512 -46.6503 -46.6499 -42.8959 -42.8933
   -42.8926 -42.8922 -42.8913 -42.8902 -42.8779 -42.8773 -42.8771 -42.8750
   -42.8741 -42.8733 -42.7963 -42.7955 -42.7951 -42.7941 -42.7939 -42.7938
    -6.7509  -5.9002  -4.8827  -4.8640  -4.7726  -4.7515  -4.6771  -4.6174
    -4.5191  -4.4587  -4.3324  -4.0733  -4.0183  -3.9203  -3.4046  -3.1273
    -2.2294  -1.9210  -1.7877  -1.6969  -1.5469  -1.4237  -1.4234  -1.3820
    -1.3686  -1.1875  -1.1230  -1.0770  -1.0127  -0.9654  -0.9592  -0.7449
    -0.6990  -0.6966  -0.6702

     occupation numbers 
     1.0000   1.0000   1.0000   1.0000   1.0000   1.0000   1.0000   1.0000
     1.0000   1.0000   1.0000   1.0000   1.0000   1.0000   1.0000   1.0000
     1.0000   1.0000   1.0000   1.0000   1.0000   1.0000   1.0000   1.0000
     1.0000   1.0000   1.0000   1.0000   1.0000   1.0000   1.0000   1.0000
     1.0000   1.0000   1.0000   1.0000   1.0000   1.0000   1.0000   1.0000
     1.0000   1.0000   1.0000   1.0000   1.0000   1.0000   0.1735   0.0000
     0.0000   0.0000   0.0000   0.0000   0.0000   0.0000   0.0000   0.0000
     0.0000   0.0000   0.0000   0.0000   0.0000   0.0000   0.0000   0.0000
     0.0000   0.0000   0.0000

          k = 0.0000-0.5774 0.0000 ( 52578 PWs)   bands (ev):

   -74.9049 -74.9048 -71.0903 -71.0903 -71.0902 -71.0902 -71.0901 -71.0900
   -46.6536 -46.6527 -46.6520 -46.6512 -46.6503 -46.6499 -42.8957 -42.8935
   -42.8926 -42.8922 -42.8913 -42.8902 -42.8777 -42.8773 -42.8772 -42.8751
   -42.8740 -42.8733 -42.7962 -42.7955 -42.7951 -42.7941 -42.7939 -42.7938
    -6.6392  -6.0435  -4.8957  -4.8586  -4.7746  -4.7587  -4.6795  -4.6156
    -4.5138  -4.4603  -4.2592  -4.1082  -4.0740  -3.8199  -3.4208  -3.2631
    -2.1537  -1.9309  -1.8436  -1.6858  -1.5488  -1.4302  -1.4033  -1.3675
    -1.3661  -1.1830  -1.1234  -1.0601  -0.9913  -0.9813  -0.9490  -0.7252
    -0.7149  -0.6940  -0.6733

     occupation numbers 
     1.0000   1.0000   1.0000   1.0000   1.0000   1.0000   1.0000   1.0000
     1.0000   1.0000   1.0000   1.0000   1.0000   1.0000   1.0000   1.0000
     1.0000   1.0000   1.0000   1.0000   1.0000   1.0000   1.0000   1.0000
     1.0000   1.0000   1.0000   1.0000   1.0000   1.0000   1.0000   1.0000
     1.0000   1.0000   1.0000   1.0000   1.0000   1.0000   1.0000   1.0000
     1.0000   1.0000   1.0000   1.0000   1.0000   1.0000   0.2732   0.0001
     0.0000   0.0000   0.0000   0.0000   0.0000   0.0000   0.0000   0.0000
     0.0000   0.0000   0.0000   0.0000   0.0000   0.0000   0.0000   0.0000
     0.0000   0.0000   0.0000

          k = 0.0833 0.1443 0.0000 ( 52595 PWs)   bands (ev):

   -74.9050 -74.9047 -71.0904 -71.0903 -71.0902 -71.0902 -71.0900 -71.0900
   -46.6536 -46.6535 -46.6512 -46.6511 -46.6506 -46.6497 -42.8971 -42.8924
   -42.8921 -42.8920 -42.8911 -42.8907 -42.8792 -42.8767 -42.8766 -42.8746
   -42.8744 -42.8733 -42.7967 -42.7952 -42.7952 -42.7940 -42.7939 -42.7938
    -7.2828  -4.9855  -4.9261  -4.7613  -4.6982  -4.6684  -4.6678  -4.6296
    -4.5943  -4.5810  -4.4699  -4.4218  -3.9744  -3.4206  -3.1303  -2.7275
    -2.3819  -1.9620  -1.9489  -1.7067  -1.4849  -1.4678  -1.4455  -1.3469
    -1.3282  -1.2377  -1.1801  -1.1519  -1.1361  -1.1210  -0.9129  -0.7834
    -0.7780  -0.7337  -0.6400

     occupation numbers 
     1.0000   1.0000   1.0000   1.0000   1.0000   1.0000   1.0000   1.0000
     1.0000   1.0000   1.0000   1.0000   1.0000   1.0000   1.0000   1.0000
     1.0000   1.0000   1.0000   1.0000   1.0000   1.0000   1.0000   1.0000
     1.0000   1.0000   1.0000   1.0000   1.0000   1.0000   1.0000   1.0000
     1.0000   1.0000   1.0000   1.0000   1.0000   1.0000   1.0000   1.0000
     1.0000   1.0000   1.0000   1.0000   1.0000   0.2720   0.0000   0.0000
     0.0000   0.0000   0.0000   0.0000   0.0000   0.0000   0.0000   0.0000
     0.0000   0.0000   0.0000   0.0000   0.0000   0.0000   0.0000   0.0000
     0.0000   0.0000   0.0000

          k = 0.0833 0.2406 0.0000 ( 52608 PWs)   bands (ev):

   -74.9050 -74.9047 -71.0904 -71.0902 -71.0902 -71.0902 -71.0900 -71.0900
   -46.6536 -46.6534 -46.6513 -46.6511 -46.6505 -46.6498 -42.8968 -42.8925
   -42.8922 -42.8920 -42.8914 -42.8905 -42.8789 -42.8769 -42.8767 -42.8747
   -42.8743 -42.8733 -42.7966 -42.7953 -42.7951 -42.7940 -42.7939 -42.7938
    -7.1746  -5.2073  -4.9067  -4.7845  -4.7264  -4.6877  -4.6688  -4.6394
    -4.5767  -4.5473  -4.4453  -4.3289  -4.0304  -3.6314  -3.1320  -2.6882
    -2.5054  -1.8620  -1.8051  -1.7620  -1.5262  -1.4783  -1.4494  -1.3753
    -1.3387  -1.1993  -1.1744  -1.1429  -1.1085  -1.0897  -0.8303  -0.8167
    -0.7807  -0.7218  -0.6400

     occupation numbers 
     1.0000   1.0000   1.0000   1.0000   1.0000   1.0000   1.0000   1.0000
     1.0000   1.0000   1.0000   1.0000   1.0000   1.0000   1.0000   1.0000
     1.0000   1.0000   1.0000   1.0000   1.0000   1.0000   1.0000   1.0000
     1.0000   1.0000   1.0000   1.0000   1.0000   1.0000   1.0000   1.0000
     1.0000   1.0000   1.0000   1.0000   1.0000   1.0000   1.0000   1.0000
     1.0000   1.0000   1.0000   1.0000   1.0000   0.9999   0.0000   0.0000
     0.0000   0.0000   0.0000   0.0000   0.0000   0.0000   0.0000   0.0000
     0.0000   0.0000   0.0000   0.0000   0.0000   0.0000   0.0000   0.0000
     0.0000   0.0000   0.0000

          k = 0.0833 0.3368 0.0000 ( 52599 PWs)   bands (ev):

   -74.9050 -74.9048 -71.0903 -71.0902 -71.0902 -71.0902 -71.0901 -71.0900
   -46.6536 -46.6532 -46.6515 -46.6511 -46.6504 -46.6499 -42.8965 -42.8926
   -42.8925 -42.8921 -42.8915 -42.8903 -42.8785 -42.8771 -42.8768 -42.8749
   -42.8742 -42.8733 -42.7965 -42.7953 -42.7951 -42.7941 -42.7939 -42.7938
    -7.0185  -5.4857  -4.8859  -4.8297  -4.7530  -4.7147  -4.6780  -4.6290
    -4.5467  -4.5120  -4.4208  -4.1911  -4.0600  -3.8283  -3.2046  -2.7457
    -2.5073  -1.9167  -1.7401  -1.6799  -1.5604  -1.4743  -1.4391  -1.3964
    -1.3564  -1.1873  -1.1508  -1.1244  -1.0690  -1.0367  -0.8790  -0.7734
    -0.7415  -0.6996  -0.6563

     occupation numbers 
     1.0000   1.0000   1.0000   1.0000   1.0000   1.0000   1.0000   1.0000
     1.0000   1.0000   1.0000   1.0000   1.0000   1.0000   1.0000   1.0000
     1.0000   1.0000   1.0000   1.0000   1.0000   1.0000   1.0000   1.0000
     1.0000   1.0000   1.0000   1.0000   1.0000   1.0000   1.0000   1.0000
     1.0000   1.0000   1.0000   1.0000   1.0000   1.0000   1.0000   1.0000
     1.0000   1.0000   1.0000   1.0000   1.0000   1.0000   0.0000   0.0000
     0.0000   0.0000   0.0000   0.0000   0.0000   0.0000   0.0000   0.0000
     0.0000   0.0000   0.0000   0.0000   0.0000   0.0000   0.0000   0.0000
     0.0000   0.0000   0.0000

          k = 0.0833 0.4330 0.0000 ( 52542 PWs)   bands (ev):

   -74.9049 -74.9048 -71.0903 -71.0902 -71.0902 -71.0902 -71.0901 -71.0900
   -46.6536 -46.6529 -46.6518 -46.6512 -46.6503 -46.6499 -42.8961 -42.8931
   -42.8925 -42.8922 -42.8915 -42.8902 -42.8781 -42.8773 -42.8770 -42.8750
   -42.8741 -42.8733 -42.7963 -42.7954 -42.7951 -42.7941 -42.7939 -42.7938
    -6.8278  -5.7781  -4.8779  -4.8664  -4.7679  -4.7386  -4.6849  -4.6199
    -4.5244  -4.4864  -4.3711  -4.0699  -4.0474  -3.9650  -3.2777  -2.9875
    -2.3478  -1.9816  -1.7426  -1.6729  -1.5368  -1.4533  -1.4250  -1.3962
    -1.3663  -1.1871  -1.1257  -1.0957  -1.0275  -0.9844  -0.9361  -0.7569
    -0.7119  -0.6846  -0.6639

     occupation numbers 
     1.0000   1.0000   1.0000   1.0000   1.0000   1.0000   1.0000   1.0000
     1.0000   1.0000   1.0000   1.0000   1.0000   1.0000   1.0000   1.0000
     1.0000   1.0000   1.0000   1.0000   1.0000   1.0000   1.0000   1.0000
     1.0000   1.0000   1.0000   1.0000   1.0000   1.0000   1.0000   1.0000
     1.0000   1.0000   1.0000   1.0000   1.0000   1.0000   1.0000   1.0000
     1.0000   1.0000   1.0000   1.0000   1.0000   1.0000   0.0002   0.0000
     0.0000   0.0000   0.0000   0.0000   0.0000   0.0000   0.0000   0.0000
     0.0000   0.0000   0.0000   0.0000   0.0000   0.0000   0.0000   0.0000
     0.0000   0.0000   0.0000

          k = 0.0833 0.5292 0.0000 ( 52560 PWs)   bands (ev):

   -74.9049 -74.9048 -71.0903 -71.0902 -71.0902 -71.0902 -71.0901 -71.0900
   -46.6536 -46.6528 -46.6520 -46.6512 -46.6503 -46.6500 -42.8957 -42.8935
   -42.8926 -42.8922 -42.8914 -42.8901 -42.8777 -42.8774 -42.8772 -42.8751
   -42.8740 -42.8733 -42.7962 -42.7955 -42.7951 -42.7941 -42.7939 -42.7938
    -6.6514  -6.0116  -4.9038  -4.8576  -4.7753  -4.7513  -4.6890  -4.6150
    -4.5118  -4.4808  -4.2889  -4.1487  -4.0709  -3.8324  -3.3393  -3.1804
    -2.2161  -2.0301  -1.8026  -1.6588  -1.5332  -1.4309  -1.4161  -1.3868
    -1.3579  -1.1809  -1.1249  -1.0677  -0.9964  -0.9731  -0.9527  -0.7331
    -0.7082  -0.6975  -0.6709

     occupation numbers 
     1.0000   1.0000   1.0000   1.0000   1.0000   1.0000   1.0000   1.0000
     1.0000   1.0000   1.0000   1.0000   1.0000   1.0000   1.0000   1.0000
     1.0000   1.0000   1.0000   1.0000   1.0000   1.0000   1.0000   1.0000
     1.0000   1.0000   1.0000   1.0000   1.0000   1.0000   1.0000   1.0000
     1.0000   1.0000   1.0000   1.0000   1.0000   1.0000   1.0000   1.0000
     1.0000   1.0000   1.0000   1.0000   1.0000   1.0000   0.0108   0.0000
     0.0000   0.0000   0.0000   0.0000   0.0000   0.0000   0.0000   0.0000
     0.0000   0.0000   0.0000   0.0000   0.0000   0.0000   0.0000   0.0000
     0.0000   0.0000   0.0000

          k = 0.1667 0.2887 0.0000 ( 52609 PWs)   bands (ev):

   -74.9050 -74.9048 -71.0903 -71.0902 -71.0902 -71.0902 -71.0900 -71.0900
   -46.6536 -46.6532 -46.6515 -46.6511 -46.6504 -46.6498 -42.8965 -42.8925
   -42.8925 -42.8919 -42.8917 -42.8903 -42.8785 -42.8771 -42.8768 -42.8748
   -42.8742 -42.8733 -42.7965 -42.7953 -42.7951 -42.7940 -42.7940 -42.7938
    -7.0433  -5.4314  -4.8885  -4.8259  -4.7289  -4.6954  -4.6905  -4.6566
    -4.5683  -4.5258  -4.4081  -4.2216  -4.0553  -3.8535  -3.0577  -2.6966
    -2.6101  -1.9497  -1.7209  -1.7006  -1.5404  -1.4900  -1.4460  -1.3989
    -1.3443  -1.1799  -1.1607  -1.1292  -1.0695  -1.0547  -0.8639  -0.7760
    -0.7569  -0.6994  -0.6530

     occupation numbers 
     1.0000   1.0000   1.0000   1.0000   1.0000   1.0000   1.0000   1.0000
     1.0000   1.0000   1.0000   1.0000   1.0000   1.0000   1.0000   1.0000
     1.0000   1.0000   1.0000   1.0000   1.0000   1.0000   1.0000   1.0000
     1.0000   1.0000   1.0000   1.0000   1.0000   1.0000   1.0000   1.0000
     1.0000   1.0000   1.0000   1.0000   1.0000   1.0000   1.0000   1.0000
     1.0000   1.0000   1.0000   1.0000   1.0000   1.0000   0.0000   0.0000
     0.0000   0.0000   0.0000   0.0000   0.0000   0.0000   0.0000   0.0000
     0.0000   0.0000   0.0000   0.0000   0.0000   0.0000   0.0000   0.0000
     0.0000   0.0000   0.0000

          k = 0.1667 0.3849 0.0000 ( 52570 PWs)   bands (ev):

   -74.9049 -74.9048 -71.0903 -71.0902 -71.0902 -71.0902 -71.0901 -71.0900
   -46.6536 -46.6530 -46.6517 -46.6511 -46.6503 -46.6499 -42.8961 -42.8930
   -42.8925 -42.8920 -42.8918 -42.8901 -42.8782 -42.8773 -42.8769 -42.8750
   -42.8741 -42.8733 -42.7963 -42.7954 -42.7951 -42.7941 -42.7940 -42.7938
    -6.8690  -5.6905  -4.8817  -4.8660  -4.7547  -4.7195  -4.6980  -4.6416
    -4.5586  -4.5102  -4.3748  -4.1004  -4.0644  -3.9931  -3.1094  -2.7951
    -2.5537  -2.0671  -1.7255  -1.6196  -1.5364  -1.4754  -1.4442  -1.4017
    -1.3611  -1.1808  -1.1330  -1.1066  -1.0282  -1.0079  -0.9150  -0.7645
    -0.7267  -0.6708  -0.6637

     occupation numbers 
     1.0000   1.0000   1.0000   1.0000   1.0000   1.0000   1.0000   1.0000
     1.0000   1.0000   1.0000   1.0000   1.0000   1.0000   1.0000   1.0000
     1.0000   1.0000   1.0000   1.0000   1.0000   1.0000   1.0000   1.0000
     1.0000   1.0000   1.0000   1.0000   1.0000   1.0000   1.0000   1.0000
     1.0000   1.0000   1.0000   1.0000   1.0000   1.0000   1.0000   1.0000
     1.0000   1.0000   1.0000   1.0000   1.0000   1.0000   0.0000   0.0000
     0.0000   0.0000   0.0000   0.0000   0.0000   0.0000   0.0000   0.0000
     0.0000   0.0000   0.0000   0.0000   0.0000   0.0000   0.0000   0.0000
     0.0000   0.0000   0.0000

          k = 0.1667 0.4811 0.0000 ( 52543 PWs)   bands (ev):

   -74.9049 -74.9048 -71.0903 -71.0902 -71.0902 -71.0902 -71.0901 -71.0900
   -46.6536 -46.6528 -46.6520 -46.6511 -46.6503 -46.6500 -42.8957 -42.8935
   -42.8925 -42.8922 -42.8917 -42.8899 -42.8778 -42.8774 -42.8771 -42.8751
   -42.8739 -42.8734 -42.7962 -42.7954 -42.7952 -42.7941 -42.7940 -42.7938
    -6.6733  -5.9465  -4.9241  -4.8564  -4.7708  -4.7362  -4.7064  -4.6225
    -4.5507  -4.5032  -4.3322  -4.1802  -4.0646  -3.8552  -3.2381  -2.9412
    -2.3946  -2.1589  -1.7795  -1.5970  -1.5051  -1.4552  -1.4331  -1.3974
    -1.3687  -1.1745  -1.1279  -1.0789  -0.9983  -0.9671  -0.9579  -0.7448
    -0.7123  -0.6827  -0.6743

     occupation numbers 
     1.0000   1.0000   1.0000   1.0000   1.0000   1.0000   1.0000   1.0000
     1.0000   1.0000   1.0000   1.0000   1.0000   1.0000   1.0000   1.0000
     1.0000   1.0000   1.0000   1.0000   1.0000   1.0000   1.0000   1.0000
     1.0000   1.0000   1.0000   1.0000   1.0000   1.0000   1.0000   1.0000
     1.0000   1.0000   1.0000   1.0000   1.0000   1.0000   1.0000   1.0000
     1.0000   1.0000   1.0000   1.0000   1.0000   1.0000   0.0000   0.0000
     0.0000   0.0000   0.0000   0.0000   0.0000   0.0000   0.0000   0.0000
     0.0000   0.0000   0.0000   0.0000   0.0000   0.0000   0.0000   0.0000
     0.0000   0.0000   0.0000

          k = 0.1667 0.5774 0.0000 ( 52528 PWs)   bands (ev):

   -74.9049 -74.9048 -71.0903 -71.0902 -71.0902 -71.0902 -71.0901 -71.0900
   -46.6536 -46.6527 -46.6521 -46.6511 -46.6502 -46.6500 -42.8954 -42.8938
   -42.8925 -42.8922 -42.8917 -42.8899 -42.8776 -42.8775 -42.8772 -42.8751
   -42.8739 -42.8734 -42.7962 -42.7955 -42.7952 -42.7941 -42.7940 -42.7938
    -6.5541  -6.0876  -4.9417  -4.8523  -4.7755  -4.7412  -4.7103  -4.6148
    -4.5473  -4.5022  -4.2727  -4.2654  -4.0639  -3.7408  -3.3422  -2.9908
    -2.2832  -2.2329  -1.8112  -1.5917  -1.5007  -1.4374  -1.4259  -1.4056
    -1.3605  -1.1702  -1.1280  -1.0709  -0.9854  -0.9742  -0.9513  -0.7238
    -0.7104  -0.6978  -0.6679

     occupation numbers 
     1.0000   1.0000   1.0000   1.0000   1.0000   1.0000   1.0000   1.0000
     1.0000   1.0000   1.0000   1.0000   1.0000   1.0000   1.0000   1.0000
     1.0000   1.0000   1.0000   1.0000   1.0000   1.0000   1.0000   1.0000
     1.0000   1.0000   1.0000   1.0000   1.0000   1.0000   1.0000   1.0000
     1.0000   1.0000   1.0000   1.0000   1.0000   1.0000   1.0000   1.0000
     1.0000   1.0000   1.0000   1.0000   1.0000   1.0000   0.0127   0.0000
     0.0000   0.0000   0.0000   0.0000   0.0000   0.0000   0.0000   0.0000
     0.0000   0.0000   0.0000   0.0000   0.0000   0.0000   0.0000   0.0000
     0.0000   0.0000   0.0000

          k = 0.2500 0.4330 0.0000 ( 52526 PWs)   bands (ev):

   -74.9049 -74.9048 -71.0903 -71.0902 -71.0902 -71.0902 -71.0901 -71.0900
   -46.6536 -46.6528 -46.6520 -46.6511 -46.6503 -46.6500 -42.8956 -42.8935
   -42.8925 -42.8921 -42.8919 -42.8899 -42.8778 -42.8774 -42.8770 -42.8751
   -42.8739 -42.8734 -42.7962 -42.7954 -42.7952 -42.7941 -42.7940 -42.7938
    -6.6833  -5.9126  -4.9374  -4.8562  -4.7631  -4.7343  -4.7053  -4.6460
    -4.5802  -4.5014  -4.3427  -4.1878  -4.0615  -3.8656  -3.1953  -2.6848
    -2.6246  -2.2127  -1.7747  -1.5404  -1.5207  -1.4553  -1.4532  -1.3968
    -1.3802  -1.1703  -1.1297  -1.0829  -0.9873  -0.9862  -0.9501  -0.7493
    -0.7149  -0.6784  -0.6651

     occupation numbers 
     1.0000   1.0000   1.0000   1.0000   1.0000   1.0000   1.0000   1.0000
     1.0000   1.0000   1.0000   1.0000   1.0000   1.0000   1.0000   1.0000
     1.0000   1.0000   1.0000   1.0000   1.0000   1.0000   1.0000   1.0000
     1.0000   1.0000   1.0000   1.0000   1.0000   1.0000   1.0000   1.0000
     1.0000   1.0000   1.0000   1.0000   1.0000   1.0000   1.0000   1.0000
     1.0000   1.0000   1.0000   1.0000   1.0000   1.0000   0.0000   0.0000
     0.0000   0.0000   0.0000   0.0000   0.0000   0.0000   0.0000   0.0000
     0.0000   0.0000   0.0000   0.0000   0.0000   0.0000   0.0000   0.0000
     0.0000   0.0000   0.0000

          k = 0.2500 0.5292 0.0000 ( 52522 PWs)   bands (ev):

   -74.9049 -74.9048 -71.0903 -71.0902 -71.0902 -71.0901 -71.0901 -71.0900
   -46.6536 -46.6526 -46.6522 -46.6511 -46.6502 -46.6500 -42.8952 -42.8940
   -42.8925 -42.8922 -42.8918 -42.8898 -42.8776 -42.8775 -42.8772 -42.8752
   -42.8738 -42.8735 -42.7962 -42.7954 -42.7952 -42.7941 -42.7940 -42.7938
    -6.4937  -6.1207  -4.9811  -4.8510  -4.7648  -4.7383  -4.7229  -4.6287
    -4.6037  -4.4968  -4.3117  -4.2598  -4.0578  -3.6847  -3.3516  -2.7305
    -2.4810  -2.3382  -1.8221  -1.5236  -1.4774  -1.4579  -1.4330  -1.4102
    -1.3863  -1.1594  -1.1320  -1.0732  -0.9776  -0.9691  -0.9625  -0.7268
    -0.7026  -0.6907  -0.6809

     occupation numbers 
     1.0000   1.0000   1.0000   1.0000   1.0000   1.0000   1.0000   1.0000
     1.0000   1.0000   1.0000   1.0000   1.0000   1.0000   1.0000   1.0000
     1.0000   1.0000   1.0000   1.0000   1.0000   1.0000   1.0000   1.0000
     1.0000   1.0000   1.0000   1.0000   1.0000   1.0000   1.0000   1.0000
     1.0000   1.0000   1.0000   1.0000   1.0000   1.0000   1.0000   1.0000
     1.0000   1.0000   1.0000   1.0000   1.0000   1.0000   0.0206   0.0000
     0.0000   0.0000   0.0000   0.0000   0.0000   0.0000   0.0000   0.0000
     0.0000   0.0000   0.0000   0.0000   0.0000   0.0000   0.0000   0.0000
     0.0000   0.0000   0.0000

          k = 0.3333 0.5774 0.0000 ( 52536 PWs)   bands (ev):

   -74.9049 -74.9049 -71.0903 -71.0903 -71.0902 -71.0901 -71.0901 -71.0900
   -46.6536 -46.6524 -46.6524 -46.6511 -46.6501 -46.6501 -42.8946 -42.8946
   -42.8924 -42.8924 -42.8919 -42.8897 -42.8775 -42.8773 -42.8773 -42.8752
   -42.8736 -42.8736 -42.7961 -42.7953 -42.7953 -42.7940 -42.7940 -42.7938
    -6.3046  -6.3046  -5.0093  -4.8504  -4.7485  -4.7410  -4.7410  -4.6272
    -4.6272  -4.4943  -4.2930  -4.2930  -4.0548  -3.5073  -3.5073  -2.5467
    -2.5109  -2.5109  -1.8413  -1.4777  -1.4777  -1.4570  -1.4233  -1.4142
    -1.4142  -1.1434  -1.1434  -1.0723  -0.9714  -0.9672  -0.9672  -0.7044
    -0.7044  -0.6942  -0.6907

     occupation numbers 
     1.0000   1.0000   1.0000   1.0000   1.0000   1.0000   1.0000   1.0000
     1.0000   1.0000   1.0000   1.0000   1.0000   1.0000   1.0000   1.0000
     1.0000   1.0000   1.0000   1.0000   1.0000   1.0000   1.0000   1.0000
     1.0000   1.0000   1.0000   1.0000   1.0000   1.0000   1.0000   1.0000
     1.0000   1.0000   1.0000   1.0000   1.0000   1.0000   1.0000   1.0000
     1.0000   1.0000   1.0000   1.0000   1.0000   0.8839   0.8839   0.0000
     0.0000   0.0000   0.0000   0.0000   0.0000   0.0000   0.0000   0.0000
     0.0000   0.0000   0.0000   0.0000   0.0000   0.0000   0.0000   0.0000
[...]
     1.0000   1.0000   0.9775

          k = 0.0833 0.1443 0.0000 ( 52595 PWs)   bands (ev):

   -74.9049 -74.9044 -74.9044 -74.9044 -74.9043 -74.9042 -71.7159 -71.7159
   -46.6987 -46.6985 -46.6976 -46.6969 -46.6960 -46.6959 -46.6830 -46.6812
   -46.6796 -46.6794 -46.6785 -46.6782 -46.6722 -46.6713 -46.6712 -46.6698
   -46.6698 -46.6693 -43.4597 -43.4581 -43.4574 -43.4573 -43.4556 -43.4555
    -7.7080  -5.9397  -5.4559  -5.1069  -5.0017  -4.9166  -4.8878  -4.7581
    -4.6850  -4.6178  -4.6040  -4.5341  -4.4900  -4.4598  -4.4503  -4.4448
    -4.4094  -4.4042  -4.3521  -4.3382  -4.3107  -4.3052  -4.2800  -4.2043
    -4.0665  -4.0386  -4.0148  -4.0073  -3.9852  -3.9724  -3.9308  -3.9200
    -3.2951  -3.2913  -3.2154

     occupation numbers 
     1.0000   1.0000   1.0000   1.0000   1.0000   1.0000   1.0000   1.0000
     1.0000   1.0000   1.0000   1.0000   1.0000   1.0000   1.0000   1.0000
     1.0000   1.0000   1.0000   1.0000   1.0000   1.0000   1.0000   1.0000
     1.0000   1.0000   1.0000   1.0000   1.0000   1.0000   1.0000   1.0000
     1.0000   1.0000   1.0000   1.0000   1.0000   1.0000   1.0000   1.0000
     1.0000   1.0000   1.0000   1.0000   1.0000   1.0000   1.0000   1.0000
     1.0000   1.0000   1.0000   1.0000   1.0000   1.0000   1.0000   1.0000
     1.0000   1.0000   1.0000   1.0000   1.0000   1.0000   1.0000   1.0000
     0.0006   0.0005   0.0000

          k = 0.0833 0.2406 0.0000 ( 52608 PWs)   bands (ev):

   -74.9048 -74.9044 -74.9044 -74.9044 -74.9043 -74.9043 -71.7159 -71.7159
   -46.6988 -46.6984 -46.6976 -46.6968 -46.6961 -46.6960 -46.6827 -46.6811
   -46.6798 -46.6795 -46.6786 -46.6781 -46.6722 -46.6714 -46.6714 -46.6697
   -46.6697 -46.6693 -43.4596 -43.4582 -43.4575 -43.4572 -43.4557 -43.4554
    -7.5932  -5.8360  -5.6549  -5.2127  -5.0168  -4.9402  -4.8917  -4.8047
    -4.6961  -4.6120  -4.5852  -4.5317  -4.5172  -4.4968  -4.4553  -4.4339
    -4.4028  -4.3785  -4.3634  -4.3278  -4.2960  -4.2871  -4.2624  -4.2097
    -4.0660  -4.0465  -4.0213  -4.0054  -3.9764  -3.9739  -3.9232  -3.9086
    -3.5336  -3.3599  -3.2298

     occupation numbers 
     1.0000   1.0000   1.0000   1.0000   1.0000   1.0000   1.0000   1.0000
     1.0000   1.0000   1.0000   1.0000   1.0000   1.0000   1.0000   1.0000
     1.0000   1.0000   1.0000   1.0000   1.0000   1.0000   1.0000   1.0000
     1.0000   1.0000   1.0000   1.0000   1.0000   1.0000   1.0000   1.0000
     1.0000   1.0000   1.0000   1.0000   1.0000   1.0000   1.0000   1.0000
     1.0000   1.0000   1.0000   1.0000   1.0000   1.0000   1.0000   1.0000
     1.0000   1.0000   1.0000   1.0000   1.0000   1.0000   1.0000   1.0000
     1.0000   1.0000   1.0000   1.0000   1.0000   1.0000   1.0000   1.0000
     0.9594   0.0309   0.0000

          k = 0.0833 0.3368 0.0000 ( 52599 PWs)   bands (ev):

   -74.9048 -74.9044 -74.9044 -74.9044 -74.9043 -74.9043 -71.7159 -71.7159
   -46.6989 -46.6983 -46.6976 -46.6966 -46.6962 -46.6960 -46.6823 -46.6810
   -46.6801 -46.6797 -46.6786 -46.6779 -46.6722 -46.6716 -46.6716 -46.6696
   -46.6695 -46.6693 -43.4595 -43.4584 -43.4576 -43.4572 -43.4558 -43.4554
    -7.4260  -5.9192  -5.6866  -5.3188  -5.0661  -4.9801  -4.8904  -4.8305
    -4.7191  -4.6223  -4.5753  -4.5637  -4.5541  -4.4895  -4.4608  -4.4206
    -4.4187  -4.3796  -4.3319  -4.3174  -4.3047  -4.2480  -4.2103  -4.1878
    -4.0973  -4.0467  -4.0400  -3.9836  -3.9647  -3.9407  -3.9121  -3.9057
    -3.7357  -3.4752  -3.3534

     occupation numbers 
     1.0000   1.0000   1.0000   1.0000   1.0000   1.0000   1.0000   1.0000
     1.0000   1.0000   1.0000   1.0000   1.0000   1.0000   1.0000   1.0000
     1.0000   1.0000   1.0000   1.0000   1.0000   1.0000   1.0000   1.0000
     1.0000   1.0000   1.0000   1.0000   1.0000   1.0000   1.0000   1.0000
     1.0000   1.0000   1.0000   1.0000   1.0000   1.0000   1.0000   1.0000
     1.0000   1.0000   1.0000   1.0000   1.0000   1.0000   1.0000   1.0000
     1.0000   1.0000   1.0000   1.0000   1.0000   1.0000   1.0000   1.0000
     1.0000   1.0000   1.0000   1.0000   1.0000   1.0000   1.0000   1.0000
     1.0000   0.7013   0.0225

          k = 0.0833 0.4330 0.0000 ( 52542 PWs)   bands (ev):

   -74.9047 -74.9045 -74.9044 -74.9044 -74.9043 -74.9043 -71.7159 -71.7159
   -46.6989 -46.6982 -46.6975 -46.6966 -46.6962 -46.6961 -46.6819 -46.6809
   -46.6804 -46.6800 -46.6786 -46.6778 -46.6722 -46.6717 -46.6717 -46.6695
   -46.6695 -46.6693 -43.4594 -43.4586 -43.4576 -43.4571 -43.4559 -43.4553
    -7.2170  -6.2157  -5.5021  -5.3986  -5.1214  -5.0155  -4.9213  -4.8311
    -4.7803  -4.6641  -4.6104  -4.5527  -4.5452  -4.4791  -4.4560  -4.4465
    -4.4379  -4.3734  -4.3317  -4.2976  -4.2632  -4.2029  -4.1586  -4.1480
    -4.1079  -4.0607  -4.0499  -3.9810  -3.9416  -3.9216  -3.9020  -3.8811
    -3.8669  -3.6040  -3.5230

     occupation numbers 
     1.0000   1.0000   1.0000   1.0000   1.0000   1.0000   1.0000   1.0000
     1.0000   1.0000   1.0000   1.0000   1.0000   1.0000   1.0000   1.0000
     1.0000   1.0000   1.0000   1.0000   1.0000   1.0000   1.0000   1.0000
     1.0000   1.0000   1.0000   1.0000   1.0000   1.0000   1.0000   1.0000
     1.0000   1.0000   1.0000   1.0000   1.0000   1.0000   1.0000   1.0000
     1.0000   1.0000   1.0000   1.0000   1.0000   1.0000   1.0000   1.0000
     1.0000   1.0000   1.0000   1.0000   1.0000   1.0000   1.0000   1.0000
     1.0000   1.0000   1.0000   1.0000   1.0000   1.0000   1.0000   1.0000
     1.0000   0.9993   0.9360

          k = 0.0833 0.5292 0.0000 ( 52560 PWs)   bands (ev):

   -74.9047 -74.9045 -74.9044 -74.9044 -74.9043 -74.9043 -71.7159 -71.7159
   -46.6990 -46.6982 -46.6974 -46.6965 -46.6963 -46.6961 -46.6816 -46.6808
   -46.6807 -46.6802 -46.6785 -46.6777 -46.6722 -46.6718 -46.6718 -46.6695
   -46.6694 -46.6692 -43.4592 -43.4587 -43.4576 -43.4570 -43.4559 -43.4552
    -7.0081  -6.4761  -5.4450  -5.2979  -5.1614  -5.0494  -5.0313  -4.8258
    -4.8183  -4.6844  -4.6171  -4.5551  -4.5184  -4.4871  -4.4760  -4.4516
    -4.4452  -4.3658  -4.3368  -4.2905  -4.1977  -4.1752  -4.1347  -4.1209
    -4.0923  -4.0749  -4.0568  -3.9904  -3.9741  -3.9438  -3.8985  -3.8708
    -3.7942  -3.7106  -3.6644

     occupation numbers 
     1.0000   1.0000   1.0000   1.0000   1.0000   1.0000   1.0000   1.0000
     1.0000   1.0000   1.0000   1.0000   1.0000   1.0000   1.0000   1.0000
     1.0000   1.0000   1.0000   1.0000   1.0000   1.0000   1.0000   1.0000
     1.0000   1.0000   1.0000   1.0000   1.0000   1.0000   1.0000   1.0000
     1.0000   1.0000   1.0000   1.0000   1.0000   1.0000   1.0000   1.0000
     1.0000   1.0000   1.0000   1.0000   1.0000   1.0000   1.0000   1.0000
     1.0000   1.0000   1.0000   1.0000   1.0000   1.0000   1.0000   1.0000
     1.0000   1.0000   1.0000   1.0000   1.0000   1.0000   1.0000   1.0000
     1.0000   1.0000   1.0000

          k = 0.1667 0.2887 0.0000 ( 52609 PWs)   bands (ev):

   -74.9048 -74.9044 -74.9044 -74.9044 -74.9043 -74.9043 -71.7159 -71.7159
   -46.6989 -46.6982 -46.6976 -46.6967 -46.6961 -46.6960 -46.6824 -46.6810
   -46.6801 -46.6795 -46.6788 -46.6778 -46.6722 -46.6716 -46.6715 -46.6696
   -46.6696 -46.6693 -43.4595 -43.4584 -43.4576 -43.4571 -43.4558 -43.4554
    -7.4531  -5.8507  -5.7115  -5.3664  -5.0148  -4.9492  -4.9178  -4.8559
    -4.7210  -4.5980  -4.5654  -4.5574  -4.5173  -4.4870  -4.4866  -4.4106
    -4.4089  -4.3639  -4.3368  -4.3358  -4.2897  -4.2542  -4.2483  -4.2126
    -4.0966  -4.0429  -4.0290  -3.9899  -3.9795  -3.9532  -3.9099  -3.9051
    -3.6868  -3.5509  -3.2794

     occupation numbers 
     1.0000   1.0000   1.0000   1.0000   1.0000   1.0000   1.0000   1.0000
     1.0000   1.0000   1.0000   1.0000   1.0000   1.0000   1.0000   1.0000
     1.0000   1.0000   1.0000   1.0000   1.0000   1.0000   1.0000   1.0000
     1.0000   1.0000   1.0000   1.0000   1.0000   1.0000   1.0000   1.0000
     1.0000   1.0000   1.0000   1.0000   1.0000   1.0000   1.0000   1.0000
     1.0000   1.0000   1.0000   1.0000   1.0000   1.0000   1.0000   1.0000
     1.0000   1.0000   1.0000   1.0000   1.0000   1.0000   1.0000   1.0000
     1.0000   1.0000   1.0000   1.0000   1.0000   1.0000   1.0000   1.0000
     1.0000   0.9822   0.0002

          k = 0.1667 0.3849 0.0000 ( 52570 PWs)   bands (ev):

   -74.9047 -74.9045 -74.9044 -74.9044 -74.9043 -74.9043 -71.7159 -71.7159
   -46.6990 -46.6981 -46.6976 -46.6966 -46.6962 -46.6961 -46.6820 -46.6809
   -46.6804 -46.6797 -46.6789 -46.6777 -46.6722 -46.6717 -46.6717 -46.6695
   -46.6695 -46.6693 -43.4594 -43.4585 -43.4577 -43.4570 -43.4559 -43.4553
    -7.2652  -6.0940  -5.5505  -5.5035  -5.0556  -4.9794  -4.9301  -4.8694
    -4.7590  -4.5969  -4.5837  -4.5568  -4.5401  -4.4867  -4.4722  -4.4283
    -4.4124  -4.3650  -4.3181  -4.2914  -4.2863  -4.2293  -4.2013  -4.1990
    -4.1156  -4.0464  -4.0428  -3.9823  -3.9805  -3.9186  -3.9083  -3.8834
    -3.8333  -3.6984  -3.4300

     occupation numbers 
     1.0000   1.0000   1.0000   1.0000   1.0000   1.0000   1.0000   1.0000
     1.0000   1.0000   1.0000   1.0000   1.0000   1.0000   1.0000   1.0000
     1.0000   1.0000   1.0000   1.0000   1.0000   1.0000   1.0000   1.0000
     1.0000   1.0000   1.0000   1.0000   1.0000   1.0000   1.0000   1.0000
     1.0000   1.0000   1.0000   1.0000   1.0000   1.0000   1.0000   1.0000
     1.0000   1.0000   1.0000   1.0000   1.0000   1.0000   1.0000   1.0000
     1.0000   1.0000   1.0000   1.0000   1.0000   1.0000   1.0000   1.0000
     1.0000   1.0000   1.0000   1.0000   1.0000   1.0000   1.0000   1.0000
     1.0000   1.0000   0.3403

          k = 0.1667 0.4811 0.0000 ( 52543 PWs)   bands (ev):

   -74.9047 -74.9045 -74.9044 -74.9044 -74.9043 -74.9043 -71.7159 -71.7159
   -46.6990 -46.6980 -46.6975 -46.6965 -46.6963 -46.6962 -46.6817 -46.6808
   -46.6807 -46.6800 -46.6790 -46.6775 -46.6722 -46.6718 -46.6718 -46.6695
   -46.6694 -46.6692 -43.4592 -43.4587 -43.4577 -43.4569 -43.4560 -43.4552
    -7.0474  -6.3584  -5.5958  -5.3639  -5.1069  -5.0143  -4.9646  -4.8497
    -4.8027  -4.6607  -4.5859  -4.5464  -4.5375  -4.4838  -4.4736  -4.4469
    -4.4258  -4.3461  -4.3171  -4.2868  -4.2350  -4.1969  -4.1686  -4.1559
    -4.1172  -4.0639  -4.0517  -3.9797  -3.9631  -3.9472  -3.9249  -3.8929
    -3.8230  -3.8143  -3.5977

     occupation numbers 
     1.0000   1.0000   1.0000   1.0000   1.0000   1.0000   1.0000   1.0000
     1.0000   1.0000   1.0000   1.0000   1.0000   1.0000   1.0000   1.0000
     1.0000   1.0000   1.0000   1.0000   1.0000   1.0000   1.0000   1.0000
     1.0000   1.0000   1.0000   1.0000   1.0000   1.0000   1.0000   1.0000
     1.0000   1.0000   1.0000   1.0000   1.0000   1.0000   1.0000   1.0000
     1.0000   1.0000   1.0000   1.0000   1.0000   1.0000   1.0000   1.0000
     1.0000   1.0000   1.0000   1.0000   1.0000   1.0000   1.0000   1.0000
     1.0000   1.0000   1.0000   1.0000   1.0000   1.0000   1.0000   1.0000
     1.0000   1.0000   0.9989

          k = 0.1667 0.5774 0.0000 ( 52528 PWs)   bands (ev):

   -74.9047 -74.9045 -74.9044 -74.9044 -74.9043 -74.9043 -71.7159 -71.7159
   -46.6990 -46.6980 -46.6974 -46.6965 -46.6963 -46.6962 -46.6815 -46.6809
   -46.6805 -46.6802 -46.6790 -46.6775 -46.6722 -46.6718 -46.6718 -46.6694
   -46.6694 -46.6692 -43.4592 -43.4588 -43.4577 -43.4568 -43.4561 -43.4552
    -6.9012  -6.5233  -5.6257  -5.2211  -5.1658  -5.0533  -4.9838  -4.8358
    -4.8242  -4.6917  -4.5849  -4.5506  -4.5156  -4.5010  -4.4758  -4.4543
    -4.4245  -4.3343  -4.3230  -4.2858  -4.2062  -4.1820  -4.1440  -4.1388
    -4.1160  -4.0687  -4.0616  -4.0007  -3.9691  -3.9452  -3.9153  -3.8956
    -3.8818  -3.7602  -3.6992

     occupation numbers 
     1.0000   1.0000   1.0000   1.0000   1.0000   1.0000   1.0000   1.0000
     1.0000   1.0000   1.0000   1.0000   1.0000   1.0000   1.0000   1.0000
     1.0000   1.0000   1.0000   1.0000   1.0000   1.0000   1.0000   1.0000
     1.0000   1.0000   1.0000   1.0000   1.0000   1.0000   1.0000   1.0000
     1.0000   1.0000   1.0000   1.0000   1.0000   1.0000   1.0000   1.0000
     1.0000   1.0000   1.0000   1.0000   1.0000   1.0000   1.0000   1.0000
     1.0000   1.0000   1.0000   1.0000   1.0000   1.0000   1.0000   1.0000
     1.0000   1.0000   1.0000   1.0000   1.0000   1.0000   1.0000   1.0000
     1.0000   1.0000   1.0000

          k = 0.2500 0.4330 0.0000 ( 52526 PWs)   bands (ev):

   -74.9047 -74.9045 -74.9044 -74.9044 -74.9043 -74.9043 -71.7159 -71.7159
   -46.6990 -46.6979 -46.6975 -46.6965 -46.6963 -46.6962 -46.6817 -46.6808
   -46.6807 -46.6797 -46.6793 -46.6774 -46.6722 -46.6718 -46.6718 -46.6695
   -46.6694 -46.6692 -43.4592 -43.4587 -43.4577 -43.4568 -43.4561 -43.4552
    -7.0640  -6.2909  -5.6733  -5.3875  -5.0905  -5.0050  -4.9178  -4.8856
    -4.7996  -4.6074  -4.5712  -4.5593  -4.5452  -4.4911  -4.4767  -4.4277
    -4.4060  -4.3472  -4.3031  -4.2697  -4.2520  -4.2308  -4.2120  -4.1703
    -4.1235  -4.0522  -4.0501  -3.9912  -3.9791  -3.9335  -3.9127  -3.9033
    -3.8459  -3.8329  -3.5291

     occupation numbers 
     1.0000   1.0000   1.0000   1.0000   1.0000   1.0000   1.0000   1.0000
     1.0000   1.0000   1.0000   1.0000   1.0000   1.0000   1.0000   1.0000
     1.0000   1.0000   1.0000   1.0000   1.0000   1.0000   1.0000   1.0000
     1.0000   1.0000   1.0000   1.0000   1.0000   1.0000   1.0000   1.0000
     1.0000   1.0000   1.0000   1.0000   1.0000   1.0000   1.0000   1.0000
     1.0000   1.0000   1.0000   1.0000   1.0000   1.0000   1.0000   1.0000
     1.0000   1.0000   1.0000   1.0000   1.0000   1.0000   1.0000   1.0000
     1.0000   1.0000   1.0000   1.0000   1.0000   1.0000   1.0000   1.0000
     1.0000   1.0000   0.9504

          k = 0.2500 0.5292 0.0000 ( 52522 PWs)   bands (ev):

   -74.9046 -74.9046 -74.9044 -74.9043 -74.9043 -74.9043 -71.7159 -71.7159
   -46.6991 -46.6978 -46.6975 -46.6965 -46.6963 -46.6963 -46.6815 -46.6810
   -46.6803 -46.6799 -46.6794 -46.6773 -46.6723 -46.6718 -46.6718 -46.6694
   -46.6694 -46.6692 -43.4591 -43.4588 -43.4578 -43.4567 -43.4562 -43.4552
    -6.8532  -6.4985  -5.7674  -5.2410  -5.1395  -5.0314  -4.9179  -4.8591
    -4.8348  -4.6508  -4.5719  -4.5589  -4.5348  -4.4994  -4.4900  -4.4205
    -4.3993  -4.3342  -4.2896  -4.2737  -4.2414  -4.2154  -4.1883  -4.1484
    -4.1243  -4.0634  -4.0600  -3.9886  -3.9849  -3.9644  -3.9371  -3.9262
    -3.9032  -3.7678  -3.6559

     occupation numbers 
     1.0000   1.0000   1.0000   1.0000   1.0000   1.0000   1.0000   1.0000
     1.0000   1.0000   1.0000   1.0000   1.0000   1.0000   1.0000   1.0000
     1.0000   1.0000   1.0000   1.0000   1.0000   1.0000   1.0000   1.0000
     1.0000   1.0000   1.0000   1.0000   1.0000   1.0000   1.0000   1.0000
     1.0000   1.0000   1.0000   1.0000   1.0000   1.0000   1.0000   1.0000
     1.0000   1.0000   1.0000   1.0000   1.0000   1.0000   1.0000   1.0000
     1.0000   1.0000   1.0000   1.0000   1.0000   1.0000   1.0000   1.0000
     1.0000   1.0000   1.0000   1.0000   1.0000   1.0000   1.0000   1.0000
     1.0000   1.0000   1.0000

          k = 0.3333 0.5774 0.0000 ( 52536 PWs)   bands (ev):

   -74.9046 -74.9046 -74.9044 -74.9043 -74.9043 -74.9043 -71.7159 -71.7159
   -46.6991 -46.6976 -46.6976 -46.6965 -46.6963 -46.6963 -46.6813 -46.6813
   -46.6799 -46.6799 -46.6799 -46.6773 -46.6723 -46.6718 -46.6718 -46.6694
   -46.6694 -46.6692 -43.4590 -43.4590 -43.4578 -43.4564 -43.4564 -43.4551
    -6.6613  -6.6613  -5.8387  -5.1738  -5.1738  -5.0327  -4.8758  -4.8758
    -4.8491  -4.6184  -4.6184  -4.5421  -4.5421  -4.5107  -4.4928  -4.3930
    -4.3930  -4.3325  -4.2728  -4.2683  -4.2683  -4.2338  -4.1749  -4.1389
    -4.1389  -4.0634  -4.0634  -3.9999  -3.9805  -3.9805  -3.9600  -3.9217
    -3.9217  -3.7048  -3.7048

     occupation numbers 
     1.0000   1.0000   1.0000   1.0000   1.0000   1.0000   1.0000   1.0000
     1.0000   1.0000   1.0000   1.0000   1.0000   1.0000   1.0000   1.0000
     1.0000   1.0000   1.0000   1.0000   1.0000   1.0000   1.0000   1.0000
     1.0000   1.0000   1.0000   1.0000   1.0000   1.0000   1.0000   1.0000
     1.0000   1.0000   1.0000   1.0000   1.0000   1.0000   1.0000   1.0000
     1.0000   1.0000   1.0000   1.0000   1.0000   1.0000   1.0000   1.0000
     1.0000   1.0000   1.0000   1.0000   1.0000   1.0000   1.0000   1.0000
     1.0000   1.0000   1.0000   1.0000   1.0000   1.0000   1.0000   1.0000
     1.0000   1.0000   1.0000

     the Fermi energy is    -3.4498 ev

!    total energy              =   -1420.80359653 Ry
     estimated scf accuracy    <          5.3E-15 Ry
     smearing contrib. (-TS)   =      -0.00071267 Ry
     internal energy E=F+TS    =   -1420.80288386 Ry

     The total energy is F=E-TS. E is the sum of the following terms:
     one-electron contribution =   -4423.89207691 Ry
     hartree contribution      =    2188.67544594 Ry
     xc contribution           =    -208.56997299 Ry
     ewald contribution        =    1022.98372011 Ry

     total magnetization       =   -20.15 Bohr mag/cell
     absolute magnetization    =    33.80 Bohr mag/cell

     convergence has been achieved in  31 iterations

     Writing all to output data dir ./cri3_90Ry_k12x12x1.save/
 
     init_run     :     21.93s CPU     22.97s WALL (       1 calls)
     electrons    :   2365.01s CPU   2419.97s WALL (       1 calls)

     Called by init_run:
     wfcinit      :     20.97s CPU     21.95s WALL (       1 calls)
     wfcinit:atom :      0.26s CPU      0.42s WALL (      38 calls)
     wfcinit:wfcr :     19.66s CPU     20.31s WALL (      38 calls)
     potinit      :      0.28s CPU      0.28s WALL (       1 calls)
     hinit0       :      0.46s CPU      0.50s WALL (       1 calls)

     Called by electrons:
     c_bands      :   2076.83s CPU   2125.65s WALL (      31 calls)
     sum_band     :    283.98s CPU    289.85s WALL (      31 calls)
     v_of_rho     :      0.98s CPU      1.00s WALL (      32 calls)
     v_h          :      0.28s CPU      0.28s WALL (      32 calls)
     v_xc         :      0.70s CPU      0.72s WALL (      32 calls)
     mix_rho      :      2.92s CPU      2.96s WALL (      31 calls)

     Called by c_bands:
     init_us_2    :     18.26s CPU     18.41s WALL (    2394 calls)
     init_us_2:cp :     18.24s CPU     18.39s WALL (    2394 calls)
     cegterg      :   1970.06s CPU   2018.23s WALL (    1189 calls)

     Called by sum_band:
     sum_band:wei :      0.11s CPU      0.11s WALL (      31 calls)
     sum_band:loo :    282.83s CPU    288.69s WALL (      31 calls)
     sum_band:buf :      4.71s CPU      4.76s WALL (    1178 calls)
     sum_band:ini :      8.98s CPU      9.04s WALL (    1178 calls)

     Called by *egterg:
     cdiaghg      :     66.99s CPU     76.44s WALL (   12360 calls)
     cegterg:over :    125.89s CPU    127.40s WALL (   11176 calls)
     cegterg:upda :    158.82s CPU    160.29s WALL (   11176 calls)
     cegterg:last :    157.55s CPU    158.58s WALL (    3160 calls)
     cdiaghg:chol :      4.71s CPU      4.84s WALL (   12360 calls)
     cdiaghg:inve :      3.37s CPU      3.52s WALL (   12360 calls)
     cdiaghg:para :      5.96s CPU      6.15s WALL (   24720 calls)
     h_psi        :   1433.74s CPU   1468.50s WALL (   12403 calls)
     g_psi        :      6.59s CPU      6.65s WALL (   11176 calls)

     Called by h_psi:
     h_psi:calbec :     87.05s CPU     88.04s WALL (   12403 calls)
     vloc_psi     :   1238.46s CPU   1271.32s WALL (   12403 calls)
     add_vuspsi   :     94.30s CPU     94.85s WALL (   12403 calls)

     General routines
     calbec       :     86.97s CPU     88.00s WALL (   12403 calls)
     fft          :      0.72s CPU      0.77s WALL (     158 calls)
     ffts         :      0.24s CPU      0.24s WALL (      62 calls)
     fftw         :   1111.29s CPU   1141.03s WALL (  571060 calls)
 
     Parallel routines
 
     PWSCF        :  39m48.38s CPU  40m54.88s WALL

 
   This run was terminated on:  11: 0:42  16Jan2024            

=------------------------------------------------------------------------------=
   JOB DONE.
=------------------------------------------------------------------------------=
