
     Program PWSCF v.7.0 starts on 19Jan2024 at 10:15:41 

     This program is part of the open-source Quantum ESPRESSO suite
     for quantum simulation of materials; please cite
         "P. Giannozzi et al., J. Phys.:Condens. Matter 21 395502 (2009);
         "P. Giannozzi et al., J. Phys.:Condens. Matter 29 465901 (2017);
         "P. Giannozzi et al., J. Chem. Phys. 152 154105 (2020);
          URL http://www.quantum-espresso.org", 
     in publications or presentations arising from this work. More details at
     http://www.quantum-espresso.org/quote

     Parallel version (MPI), running on    12 processors

     MPI processes distributed on     1 nodes
     R & G space division:  proc/nbgrp/npool/nimage =      12
     162091 MiB available memory on the printing compute node when the environment starts
 
     Reading input from cri3-exp-nosoc_90Ry_k8x8x1.scf.in

     Current dimensions of program PWSCF are:
     Max number of different atomic species (ntypx) = 10
     Max number of k-points (npk) =  40000
     Max angular momentum in pseudopotentials (lmaxx) =  4

     Subspace diagonalization in iterative solution of the eigenvalue problem:
     one sub-group per band group will be used
     scalapack distributed-memory algorithm (size of sub-group:  3*  3 procs)

 
     Parallelization info
     --------------------
     sticks:   dense  smooth     PW     G-vecs:    dense   smooth      PW
     Min         348     348     92                35048    35048    4812
     Max         349     349     93                35057    35057    4819
     Sum        4177    4177   1111               420595   420595   57791
 
     Using Slab Decomposition
 


     bravais-lattice index     =            4
     lattice parameter (alat)  =      12.9767  a.u.
     unit-cell volume          =    3645.8815 (a.u.)^3
     number of atoms/cell      =            8
     number of atomic types    =            2
     number of electrons       =        70.00
     number of Kohn-Sham states=           42
     kinetic-energy cutoff     =      90.0000  Ry
     charge density cutoff     =     360.0000  Ry
     scf convergence threshold =      1.0E-13
     mixing beta               =       0.7000
     number of iterations used =            8  plain     mixing
     Exchange-correlation= PZ
                           (   1   1   0   0   0   0   0)

     celldm(1)=  12.976749  celldm(2)=   0.000000  celldm(3)=   1.926523
     celldm(4)=   0.000000  celldm(5)=   0.000000  celldm(6)=   0.000000

     crystal axes: (cart. coord. in units of alat)
               a(1) = (   1.000000   0.000000   0.000000 )  
               a(2) = (  -0.500000   0.866025   0.000000 )  
               a(3) = (   0.000000   0.000000   1.926523 )  

     reciprocal axes: (cart. coord. in units 2 pi/alat)
               b(1) = (  1.000000  0.577350  0.000000 )  
               b(2) = (  0.000000  1.154701  0.000000 )  
               b(3) = (  0.000000  0.000000  0.519070 )  


     PseudoPot. # 1 for Cr read from file:
     ./Cr_Alejandro.upf
     MD5 check sum: 19f8874af457815d5c8e16c7b8c57f71
     Pseudo is Norm-conserving + core correction, Zval = 14.0
     Generated using ONCVPSP code by D. R. Hamann
     Using radial grid of 1600 points,  6 beta functions with: 
                l(1) =   0
                l(2) =   0
                l(3) =   1
                l(4) =   1
                l(5) =   2
                l(6) =   2

     PseudoPot. # 2 for I  read from file:
     ./I_Alejandro.upf
     MD5 check sum: d0d4d45a39a9ecd37d4d9deb6bd296a3
     Pseudo is Norm-conserving + core correction, Zval =  7.0
     Generated using ONCVPSP code by D. R. Hamann
     Using radial grid of 1196 points,  6 beta functions with: 
                l(1) =   0
                l(2) =   0
                l(3) =   1
                l(4) =   1
                l(5) =   2
                l(6) =   2

     atomic species   valence    mass     pseudopotential
        Cr            14.00    51.99000     Cr( 1.00)
        I              7.00   126.90000     I ( 1.00)

     Starting magnetic structure 
     atomic species   magnetization
        Cr           1.000
        I            0.000

     12 Sym. Ops., with inversion, found


                                    s                        frac. trans.

      isym =  1     identity                                     

 cryst.   s( 1) = (     1          0          0      )
                  (     0          1          0      )
                  (     0          0          1      )

 cart.    s( 1) = (  1.0000000  0.0000000  0.0000000 )
                  (  0.0000000  1.0000000  0.0000000 )
                  (  0.0000000  0.0000000  1.0000000 )


      isym =  2     180 deg rotation - cart. axis [0,1,0]        

 cryst.   s( 2) = (    -1          0          0      )
                  (     1          1          0      )
                  (     0          0         -1      )

 cart.    s( 2) = ( -1.0000000  0.0000000  0.0000000 )
                  (  0.0000000  1.0000000  0.0000000 )
                  (  0.0000000  0.0000000 -1.0000000 )


      isym =  3     120 deg rotation - cryst. axis [0,0,1]       

 cryst.   s( 3) = (     0          1          0      )
                  (    -1         -1          0      )
                  (     0          0          1      )

 cart.    s( 3) = ( -0.5000000 -0.8660254  0.0000000 )
                  (  0.8660254 -0.5000000  0.0000000 )
                  (  0.0000000  0.0000000  1.0000000 )


      isym =  4     120 deg rotation - cryst. axis [0,0,-1]      

 cryst.   s( 4) = (    -1         -1          0      )
                  (     1          0          0      )
                  (     0          0          1      )

 cart.    s( 4) = ( -0.5000000  0.8660254  0.0000000 )
                  ( -0.8660254 -0.5000000  0.0000000 )
                  (  0.0000000  0.0000000  1.0000000 )


      isym =  5     180 deg rotation - cryst. axis [1,-1,0]      

 cryst.   s( 5) = (     0         -1          0      )
                  (    -1          0          0      )
                  (     0          0         -1      )

 cart.    s( 5) = (  0.5000000 -0.8660254  0.0000000 )
                  ( -0.8660254 -0.5000000  0.0000000 )
                  (  0.0000000  0.0000000 -1.0000000 )


      isym =  6     180 deg rotation - cryst. axis [2,1,0]       

 cryst.   s( 6) = (     1          1          0      )
                  (     0         -1          0      )
                  (     0          0         -1      )

 cart.    s( 6) = (  0.5000000  0.8660254  0.0000000 )
                  (  0.8660254 -0.5000000  0.0000000 )
                  (  0.0000000  0.0000000 -1.0000000 )


      isym =  7     inversion                                    

 cryst.   s( 7) = (    -1          0          0      )
                  (     0         -1          0      )
                  (     0          0         -1      )

 cart.    s( 7) = ( -1.0000000  0.0000000  0.0000000 )
                  (  0.0000000 -1.0000000  0.0000000 )
                  (  0.0000000  0.0000000 -1.0000000 )


      isym =  8     inv. 180 deg rotation - cart. axis [0,1,0]   

 cryst.   s( 8) = (     1          0          0      )
                  (    -1         -1          0      )
                  (     0          0          1      )

 cart.    s( 8) = (  1.0000000  0.0000000  0.0000000 )
                  (  0.0000000 -1.0000000  0.0000000 )
                  (  0.0000000  0.0000000  1.0000000 )


      isym =  9     inv. 120 deg rotation - cryst. axis [0,0,1]  

 cryst.   s( 9) = (     0         -1          0      )
                  (     1          1          0      )
                  (     0          0         -1      )

 cart.    s( 9) = (  0.5000000  0.8660254  0.0000000 )
                  ( -0.8660254  0.5000000  0.0000000 )
                  (  0.0000000  0.0000000 -1.0000000 )


      isym = 10     inv. 120 deg rotation - cryst. axis [0,0,-1] 

 cryst.   s(10) = (     1          1          0      )
                  (    -1          0          0      )
                  (     0          0         -1      )

 cart.    s(10) = (  0.5000000 -0.8660254  0.0000000 )
                  (  0.8660254  0.5000000  0.0000000 )
                  (  0.0000000  0.0000000 -1.0000000 )


      isym = 11     inv. 180 deg rotation - cryst. axis [1,-1,0] 

 cryst.   s(11) = (     0          1          0      )
                  (     1          0          0      )
                  (     0          0          1      )

 cart.    s(11) = ( -0.5000000  0.8660254  0.0000000 )
                  (  0.8660254  0.5000000  0.0000000 )
                  (  0.0000000  0.0000000  1.0000000 )


      isym = 12     inv. 180 deg rotation - cryst. axis [2,1,0]  

 cryst.   s(12) = (    -1         -1          0      )
                  (     0          1          0      )
                  (     0          0          1      )

 cart.    s(12) = ( -0.5000000 -0.8660254  0.0000000 )
                  ( -0.8660254  0.5000000  0.0000000 )
                  (  0.0000000  0.0000000  1.0000000 )


     point group D_3d (-3m) 
     there are  6 classes
     the character table:

       E     2C3   3C2'  i     2S6   3s_d 
A_1g   1.00  1.00  1.00  1.00  1.00  1.00
A_2g   1.00  1.00 -1.00  1.00  1.00 -1.00
E_g    2.00 -1.00  0.00  2.00 -1.00  0.00
A_1u   1.00  1.00  1.00 -1.00 -1.00 -1.00
A_2u   1.00  1.00 -1.00 -1.00 -1.00  1.00
E_u    2.00 -1.00  0.00 -2.00  1.00  0.00

     the symmetry operations in each class and the name of the first element:

     E        1
          identity                                               
     2C3      3    4
          120 deg rotation - cryst. axis [0,0,1]                 
     3C2'     2    6    5
          180 deg rotation - cart. axis [0,1,0]                  
     i        7
          inversion                                              
     2S6      9   10
          inv. 120 deg rotation - cryst. axis [0,0,1]            
     3s_d     8   12   11
          inv. 180 deg rotation - cart. axis [0,1,0]             

   Cartesian axes

     site n.     atom                  positions (alat units)
         1           Cr  tau(   1) = (   0.5000000   0.2886751   0.0000000  )
         2           Cr  tau(   2) = (   0.0000000   0.5773503   0.0000000  )
         3           I   tau(   3) = (   0.3246775   0.5623579   0.2277694  )
         4           I   tau(   4) = (  -0.1753225   0.3036675   0.2277694  )
         5           I   tau(   5) = (   0.3506450   0.0000000   0.2277694  )
         6           I   tau(   6) = (   0.1753225   0.3036675  -0.2277694  )
         7           I   tau(   7) = (   0.6493550   0.0000000  -0.2277694  )
         8           I   tau(   8) = (  -0.3246775   0.5623579  -0.2277694  )

   Crystallographic axes

     site n.     atom                  positions (cryst. coord.)
         1           Cr  tau(   1) = (  0.6666667  0.3333333  0.0000000  )
         2           Cr  tau(   2) = (  0.3333333  0.6666667  0.0000000  )
         3           I   tau(   3) = (  0.6493550  0.6493550  0.1182283  )
         4           I   tau(   4) = (  0.0000000  0.3506450  0.1182283  )
         5           I   tau(   5) = (  0.3506450  0.0000000  0.1182283  )
         6           I   tau(   6) = (  0.3506450  0.3506450 -0.1182283  )
         7           I   tau(   7) = (  0.6493550  0.0000000 -0.1182283  )
         8           I   tau(   8) = (  0.0000000  0.6493550 -0.1182283  )

     number of k points=    10  Gaussian smearing, width (Ry)=  0.0050
                       cart. coord. in units 2pi/alat
        k(    1) = (   0.0000000   0.0000000   0.0000000), wk =   0.0156250
        k(    2) = (   0.0000000   0.1443376   0.0000000), wk =   0.0937500
        k(    3) = (   0.0000000   0.2886751   0.0000000), wk =   0.0937500
        k(    4) = (   0.0000000   0.4330127   0.0000000), wk =   0.0937500
        k(    5) = (   0.0000000  -0.5773503   0.0000000), wk =   0.0468750
        k(    6) = (   0.1250000   0.2165064   0.0000000), wk =   0.0937500
        k(    7) = (   0.1250000   0.3608439   0.0000000), wk =   0.1875000
        k(    8) = (   0.1250000   0.5051815   0.0000000), wk =   0.1875000
        k(    9) = (   0.2500000   0.4330127   0.0000000), wk =   0.0937500
        k(   10) = (   0.2500000   0.5773503   0.0000000), wk =   0.0937500

                       cryst. coord.
        k(    1) = (   0.0000000   0.0000000   0.0000000), wk =   0.0156250
        k(    2) = (   0.0000000   0.1250000   0.0000000), wk =   0.0937500
        k(    3) = (   0.0000000   0.2500000   0.0000000), wk =   0.0937500
        k(    4) = (   0.0000000   0.3750000   0.0000000), wk =   0.0937500
        k(    5) = (   0.0000000  -0.5000000   0.0000000), wk =   0.0468750
        k(    6) = (   0.1250000   0.1250000   0.0000000), wk =   0.0937500
        k(    7) = (   0.1250000   0.2500000   0.0000000), wk =   0.1875000
        k(    8) = (   0.1250000   0.3750000   0.0000000), wk =   0.1875000
        k(    9) = (   0.2500000   0.2500000   0.0000000), wk =   0.0937500
        k(   10) = (   0.2500000   0.3750000   0.0000000), wk =   0.0937500

     Dense  grid:   420595 G-vectors     FFT dimensions: (  80,  80, 160)

     Dynamical RAM for                 wfc:       2.81 MB

     Dynamical RAM for     wfc (w. buffer):      58.95 MB

     Dynamical RAM for           str. fact:       1.07 MB

     Dynamical RAM for           local pot:       0.00 MB

     Dynamical RAM for          nlocal pot:       9.62 MB

     Dynamical RAM for                qrad:       3.05 MB

     Dynamical RAM for          rho,v,vnew:       7.31 MB

     Dynamical RAM for               rhoin:       2.44 MB

     Dynamical RAM for            rho*nmix:      17.11 MB

     Dynamical RAM for           G-vectors:       2.27 MB

     Dynamical RAM for          h,s,v(r/c):       0.04 MB

     Dynamical RAM for          <psi|beta>:       0.09 MB

     Dynamical RAM for                 psi:       5.61 MB

     Dynamical RAM for                hpsi:       5.61 MB

     Dynamical RAM for      wfcinit/wfcrot:       5.93 MB

     Estimated static dynamical RAM per process >      90.41 MB

     Estimated max dynamical RAM per process >     118.88 MB

     Estimated total dynamical RAM >       1.39 GB
 ----2D----2D----2D----2D----2D----2D----2D----2D----2D----2D----2D----2D
  The code is running with the 2D cutoff
  Please refer to:
  Sohier, T., Calandra, M., & Mauri, F. (2017), 
  Density functional perturbation theory for gated two-dimensional heterostructu
 res:
  Theoretical developments and application to flexural phonons in graphene.
  Physical Review B, 96(7), 75448. https://doi.org/10.1103/PhysRevB.96.075448
 ----2D----2D----2D----2D----2D----2D----2D----2D----2D----2D----2D----2D
     Generating pointlists ...
     new r_m :   0.1637 (alat units)  2.1245 (a.u.) for type    1
     new r_m :   0.1637 (alat units)  2.1245 (a.u.) for type    2

     Initial potential from superposition of free atoms

     starting charge      69.9974, renormalised to      70.0000

     negative rho (up, down):  1.289E-07 1.515E-08
     Starting wfcs are   44 randomized atomic wfcs

     total cpu time spent up to now is       10.6 secs

     Self-consistent Calculation

     iteration #  1     ecut=    90.00 Ry     beta= 0.70
     Davidson diagonalization with overlap

---- Real-time Memory Report at c_bands before calling an iterative solver
           223 MiB given to the printing process from OS
             0 MiB allocation reported by mallinfo(arena+hblkhd)
        160773 MiB available memory on the node where the printing process lives
------------------
     c_bands:  5 eigenvalues not converged
     c_bands:  1 eigenvalues not converged
     c_bands:  5 eigenvalues not converged
     c_bands:  3 eigenvalues not converged
     c_bands:  3 eigenvalues not converged
     ethr =  5.00E-06,  avg # of iterations = 19.6

     negative rho (up, down):  3.374E-08 1.637E-09

     total cpu time spent up to now is      131.6 secs

     total energy              =    -511.37671066 Ry
     estimated scf accuracy    <       4.55769488 Ry

     total magnetization       =     6.00 Bohr mag/cell
     absolute magnetization    =    10.88 Bohr mag/cell

     iteration #  2     ecut=    90.00 Ry     beta= 0.70
     Davidson diagonalization with overlap

---- Real-time Memory Report at c_bands before calling an iterative solver
           259 MiB given to the printing process from OS
             0 MiB allocation reported by mallinfo(arena+hblkhd)
        159587 MiB available memory on the node where the printing process lives
------------------
     ethr =  6.51E-03,  avg # of iterations =  5.8

     total cpu time spent up to now is      168.2 secs

     total energy              =    -511.50712736 Ry
     estimated scf accuracy    <       0.96231760 Ry

     total magnetization       =     6.00 Bohr mag/cell
     absolute magnetization    =    10.64 Bohr mag/cell

     iteration #  3     ecut=    90.00 Ry     beta= 0.70
     Davidson diagonalization with overlap

---- Real-time Memory Report at c_bands before calling an iterative solver
           262 MiB given to the printing process from OS
             0 MiB allocation reported by mallinfo(arena+hblkhd)
        159537 MiB available memory on the node where the printing process lives
------------------
     ethr =  1.37E-03,  avg # of iterations =  7.3

     total cpu time spent up to now is      215.2 secs

     total energy              =    -511.47550076 Ry
     estimated scf accuracy    <       5.97744566 Ry

     total magnetization       =     6.00 Bohr mag/cell
     absolute magnetization    =     6.39 Bohr mag/cell

     iteration #  4     ecut=    90.00 Ry     beta= 0.70
     Davidson diagonalization with overlap

---- Real-time Memory Report at c_bands before calling an iterative solver
           265 MiB given to the printing process from OS
             0 MiB allocation reported by mallinfo(arena+hblkhd)
        159235 MiB available memory on the node where the printing process lives
------------------
     ethr =  1.37E-03,  avg # of iterations =  8.2

     total cpu time spent up to now is      263.0 secs

     total energy              =    -512.05886579 Ry
     estimated scf accuracy    <       0.09609146 Ry

     total magnetization       =     6.00 Bohr mag/cell
     absolute magnetization    =     7.55 Bohr mag/cell

     iteration #  5     ecut=    90.00 Ry     beta= 0.70
     Davidson diagonalization with overlap

---- Real-time Memory Report at c_bands before calling an iterative solver
           268 MiB given to the printing process from OS
             0 MiB allocation reported by mallinfo(arena+hblkhd)
        159071 MiB available memory on the node where the printing process lives
------------------
     ethr =  1.37E-04,  avg # of iterations =  6.3

     total cpu time spent up to now is      302.8 secs

     total energy              =    -512.08624273 Ry
     estimated scf accuracy    <       0.00446000 Ry

     total magnetization       =     6.00 Bohr mag/cell
     absolute magnetization    =     7.51 Bohr mag/cell

     iteration #  6     ecut=    90.00 Ry     beta= 0.70
     Davidson diagonalization with overlap

---- Real-time Memory Report at c_bands before calling an iterative solver
           270 MiB given to the printing process from OS
             0 MiB allocation reported by mallinfo(arena+hblkhd)
        158978 MiB available memory on the node where the printing process lives
------------------
     ethr =  6.37E-06,  avg # of iterations =  3.9

     total cpu time spent up to now is      335.2 secs

     total energy              =    -512.08804984 Ry
     estimated scf accuracy    <       0.00131678 Ry

     total magnetization       =     6.00 Bohr mag/cell
     absolute magnetization    =     7.34 Bohr mag/cell

     iteration #  7     ecut=    90.00 Ry     beta= 0.70
     Davidson diagonalization with overlap

---- Real-time Memory Report at c_bands before calling an iterative solver
           271 MiB given to the printing process from OS
             0 MiB allocation reported by mallinfo(arena+hblkhd)
        158878 MiB available memory on the node where the printing process lives
------------------
     ethr =  1.88E-06,  avg # of iterations =  2.8

     total cpu time spent up to now is      368.9 secs

     total energy              =    -512.08854014 Ry
     estimated scf accuracy    <       0.00009503 Ry

     total magnetization       =     6.00 Bohr mag/cell
     absolute magnetization    =     7.16 Bohr mag/cell

     iteration #  8     ecut=    90.00 Ry     beta= 0.70
     Davidson diagonalization with overlap

---- Real-time Memory Report at c_bands before calling an iterative solver
           274 MiB given to the printing process from OS
             0 MiB allocation reported by mallinfo(arena+hblkhd)
        159053 MiB available memory on the node where the printing process lives
------------------
     ethr =  1.36E-07,  avg # of iterations =  4.0

     total cpu time spent up to now is      406.2 secs

     total energy              =    -512.08856488 Ry
     estimated scf accuracy    <       0.00001578 Ry

     total magnetization       =     6.00 Bohr mag/cell
     absolute magnetization    =     7.13 Bohr mag/cell

     iteration #  9     ecut=    90.00 Ry     beta= 0.70
     Davidson diagonalization with overlap

---- Real-time Memory Report at c_bands before calling an iterative solver
           276 MiB given to the printing process from OS
             0 MiB allocation reported by mallinfo(arena+hblkhd)
        158613 MiB available memory on the node where the printing process lives
------------------
     ethr =  2.25E-08,  avg # of iterations =  3.4

     total cpu time spent up to now is      439.2 secs

     total energy              =    -512.08856881 Ry
     estimated scf accuracy    <       0.00000386 Ry

     total magnetization       =     6.00 Bohr mag/cell
     absolute magnetization    =     7.13 Bohr mag/cell

     iteration # 10     ecut=    90.00 Ry     beta= 0.70
     Davidson diagonalization with overlap

---- Real-time Memory Report at c_bands before calling an iterative solver
           278 MiB given to the printing process from OS
             0 MiB allocation reported by mallinfo(arena+hblkhd)
        158808 MiB available memory on the node where the printing process lives
------------------
     ethr =  5.52E-09,  avg # of iterations =  1.9

     total cpu time spent up to now is      466.4 secs

     total energy              =    -512.08856912 Ry
     estimated scf accuracy    <       0.00000039 Ry

     total magnetization       =     6.00 Bohr mag/cell
     absolute magnetization    =     7.13 Bohr mag/cell

     iteration # 11     ecut=    90.00 Ry     beta= 0.70
     Davidson diagonalization with overlap

---- Real-time Memory Report at c_bands before calling an iterative solver
           278 MiB given to the printing process from OS
             0 MiB allocation reported by mallinfo(arena+hblkhd)
        158670 MiB available memory on the node where the printing process lives
------------------
     ethr =  5.51E-10,  avg # of iterations =  4.0

     total cpu time spent up to now is      505.9 secs

     total energy              =    -512.08856926 Ry
     estimated scf accuracy    <       0.00000004 Ry

     total magnetization       =     6.00 Bohr mag/cell
     absolute magnetization    =     7.13 Bohr mag/cell

     iteration # 12     ecut=    90.00 Ry     beta= 0.70
     Davidson diagonalization with overlap

---- Real-time Memory Report at c_bands before calling an iterative solver
           278 MiB given to the printing process from OS
             0 MiB allocation reported by mallinfo(arena+hblkhd)
        158523 MiB available memory on the node where the printing process lives
------------------
     ethr =  5.68E-11,  avg # of iterations =  3.6

     total cpu time spent up to now is      540.4 secs

     total energy              =    -512.08856926 Ry
     estimated scf accuracy    <          5.3E-09 Ry

     total magnetization       =     6.00 Bohr mag/cell
     absolute magnetization    =     7.13 Bohr mag/cell

     iteration # 13     ecut=    90.00 Ry     beta= 0.70
     Davidson diagonalization with overlap

---- Real-time Memory Report at c_bands before calling an iterative solver
           279 MiB given to the printing process from OS
             0 MiB allocation reported by mallinfo(arena+hblkhd)
        158631 MiB available memory on the node where the printing process lives
------------------
     ethr =  7.52E-12,  avg # of iterations =  3.9

     total cpu time spent up to now is      577.7 secs

     total energy              =    -512.08856926 Ry
     estimated scf accuracy    <          1.9E-10 Ry

     total magnetization       =     6.00 Bohr mag/cell
     absolute magnetization    =     7.13 Bohr mag/cell

     iteration # 14     ecut=    90.00 Ry     beta= 0.70
     Davidson diagonalization with overlap

---- Real-time Memory Report at c_bands before calling an iterative solver
           279 MiB given to the printing process from OS
             0 MiB allocation reported by mallinfo(arena+hblkhd)
        158494 MiB available memory on the node where the printing process lives
------------------
     ethr =  2.66E-13,  avg # of iterations =  4.7

     total cpu time spent up to now is      617.3 secs

     total energy              =    -512.08856926 Ry
     estimated scf accuracy    <          1.0E-10 Ry

     total magnetization       =     6.00 Bohr mag/cell
     absolute magnetization    =     7.13 Bohr mag/cell

     iteration # 15     ecut=    90.00 Ry     beta= 0.70
     Davidson diagonalization with overlap

---- Real-time Memory Report at c_bands before calling an iterative solver
           279 MiB given to the printing process from OS
             0 MiB allocation reported by mallinfo(arena+hblkhd)
        158491 MiB available memory on the node where the printing process lives
------------------
     ethr =  1.45E-13,  avg # of iterations =  2.0

     total cpu time spent up to now is      647.4 secs

     total energy              =    -512.08856926 Ry
     estimated scf accuracy    <          7.5E-12 Ry

     total magnetization       =     6.00 Bohr mag/cell
     absolute magnetization    =     7.13 Bohr mag/cell

     iteration # 16     ecut=    90.00 Ry     beta= 0.70
     Davidson diagonalization with overlap

---- Real-time Memory Report at c_bands before calling an iterative solver
           279 MiB given to the printing process from OS
             0 MiB allocation reported by mallinfo(arena+hblkhd)
        158483 MiB available memory on the node where the printing process lives
------------------
     ethr =  1.00E-13,  avg # of iterations =  1.5
 
     Magnetic moment per site  (integrated on atomic sphere of radius R)
     atom   1 (R=0.164)  charge= 12.4362  magn=  2.9402
     atom   2 (R=0.164)  charge= 12.4362  magn=  2.9402
     atom   3 (R=0.164)  charge=  4.1210  magn= -0.0522
     atom   4 (R=0.164)  charge=  4.1210  magn= -0.0522
     atom   5 (R=0.164)  charge=  4.1210  magn= -0.0522
     atom   6 (R=0.164)  charge=  4.1210  magn= -0.0522
     atom   7 (R=0.164)  charge=  4.1210  magn= -0.0522
     atom   8 (R=0.164)  charge=  4.1210  magn= -0.0522

     total cpu time spent up to now is      674.2 secs

     End of self-consistent calculation

 ------ SPIN UP ------------


          k = 0.0000 0.0000 0.0000 ( 52593 PWs)   bands (ev):

   -77.4067 -77.4064 -49.1409 -49.1399 -49.1314 -49.1314 -49.1285 -49.1285
   -18.4876 -17.7429 -17.4392 -17.4392 -17.3452 -17.3452 -10.1009  -9.5993
    -9.0569  -9.0569  -9.0104  -9.0104  -8.6899  -8.2618  -8.2618  -8.2296
    -7.8281  -7.8281  -7.3842  -6.6895  -6.6895  -6.6538  -6.4589  -6.1669
    -6.1669  -6.1100  -6.0321  -6.0321  -5.6175  -5.6175  -4.4435  -4.4435
    -4.0114  -4.0114

     occupation numbers 
     1.0000   1.0000   1.0000   1.0000   1.0000   1.0000   1.0000   1.0000
     1.0000   1.0000   1.0000   1.0000   1.0000   1.0000   1.0000   1.0000
     1.0000   1.0000   1.0000   1.0000   1.0000   1.0000   1.0000   1.0000
     1.0000   1.0000   1.0000   1.0000   1.0000   1.0000   1.0000   1.0000
     1.0000   1.0000   1.0000   1.0000   1.0000   1.0000   0.0000   0.0000
     0.0000   0.0000

          k = 0.0000 0.1443 0.0000 ( 52628 PWs)   bands (ev):

   -77.4067 -77.4064 -49.1409 -49.1400 -49.1315 -49.1313 -49.1286 -49.1285
   -18.4545 -17.7241 -17.4856 -17.4578 -17.3490 -17.3477 -10.0996  -9.5928
    -9.0846  -9.0712  -9.0557  -8.9441  -8.5920  -8.3092  -8.2700  -8.0504
    -7.8408  -7.7501  -7.3501  -6.8342  -6.7927  -6.5056  -6.4693  -6.3504
    -6.2255  -6.0663  -6.0015  -6.0003  -5.6719  -5.5932  -4.4406  -4.4251
    -4.1375  -4.0378

     occupation numbers 
     1.0000   1.0000   1.0000   1.0000   1.0000   1.0000   1.0000   1.0000
     1.0000   1.0000   1.0000   1.0000   1.0000   1.0000   1.0000   1.0000
     1.0000   1.0000   1.0000   1.0000   1.0000   1.0000   1.0000   1.0000
     1.0000   1.0000   1.0000   1.0000   1.0000   1.0000   1.0000   1.0000
     1.0000   1.0000   1.0000   1.0000   1.0000   1.0000   0.0000   0.0000
     0.0000   0.0000

          k = 0.0000 0.2887 0.0000 ( 52560 PWs)   bands (ev):

   -77.4066 -77.4065 -49.1408 -49.1401 -49.1315 -49.1311 -49.1288 -49.1284
   -18.3594 -17.6715 -17.6071 -17.4947 -17.3692 -17.3634 -10.0852  -9.5696
    -9.1609  -9.1034  -9.0357  -8.7102  -8.4858  -8.3599  -8.2922  -7.8913
    -7.6777  -7.5681  -7.3379  -7.0089  -6.9694  -6.8250  -6.3663  -6.3498
    -6.2862  -6.0397  -5.9912  -5.9854  -5.7454  -5.5708  -4.4322  -4.3790
    -4.3057  -4.1256

     occupation numbers 
     1.0000   1.0000   1.0000   1.0000   1.0000   1.0000   1.0000   1.0000
     1.0000   1.0000   1.0000   1.0000   1.0000   1.0000   1.0000   1.0000
     1.0000   1.0000   1.0000   1.0000   1.0000   1.0000   1.0000   1.0000
     1.0000   1.0000   1.0000   1.0000   1.0000   1.0000   1.0000   1.0000
     1.0000   1.0000   1.0000   1.0000   1.0000   1.0000   0.0000   0.0000
     0.0000   0.0000

          k = 0.0000 0.4330 0.0000 ( 52578 PWs)   bands (ev):

   -77.4066 -77.4065 -49.1407 -49.1402 -49.1316 -49.1308 -49.1291 -49.1283
   -18.2193 -17.7713 -17.5960 -17.5256 -17.4196 -17.3801 -10.0802  -9.4894
    -9.2239  -9.0504  -8.8692  -8.6366  -8.5664  -8.2834  -8.1669  -7.9668
    -7.6601  -7.4990  -7.4146  -7.1435  -6.9435  -6.8693  -6.4246  -6.3599
    -6.2738  -6.0306  -6.0097  -5.9556  -5.7920  -5.5805  -4.4141  -4.3504
    -4.2802  -4.2490

     occupation numbers 
     1.0000   1.0000   1.0000   1.0000   1.0000   1.0000   1.0000   1.0000
     1.0000   1.0000   1.0000   1.0000   1.0000   1.0000   1.0000   1.0000
     1.0000   1.0000   1.0000   1.0000   1.0000   1.0000   1.0000   1.0000
     1.0000   1.0000   1.0000   1.0000   1.0000   1.0000   1.0000   1.0000
     1.0000   1.0000   1.0000   1.0000   1.0000   1.0000   0.0000   0.0000
     0.0000   0.0000

          k = 0.0000-0.5774 0.0000 ( 52578 PWs)   bands (ev):

   -77.4066 -77.4065 -49.1406 -49.1403 -49.1316 -49.1307 -49.1293 -49.1283
   -18.1125 -17.8879 -17.5374 -17.5346 -17.4719 -17.3871 -10.0853  -9.4265
    -9.2476  -8.9768  -8.7509  -8.6891  -8.5891  -8.2344  -8.0852  -8.0173
    -7.8567  -7.6548  -7.3779  -7.0054  -6.8437  -6.8085  -6.4869  -6.4431
    -6.2898  -6.0584  -6.0037  -5.8906  -5.8104  -5.5974  -4.3818  -4.3531
    -4.3321  -4.2065

     occupation numbers 
     1.0000   1.0000   1.0000   1.0000   1.0000   1.0000   1.0000   1.0000
     1.0000   1.0000   1.0000   1.0000   1.0000   1.0000   1.0000   1.0000
     1.0000   1.0000   1.0000   1.0000   1.0000   1.0000   1.0000   1.0000
     1.0000   1.0000   1.0000   1.0000   1.0000   1.0000   1.0000   1.0000
     1.0000   1.0000   1.0000   1.0000   1.0000   1.0000   0.0000   0.0000
     0.0000   0.0000

          k = 0.1250 0.2165 0.0000 ( 52635 PWs)   bands (ev):

   -77.4066 -77.4065 -49.1408 -49.1400 -49.1315 -49.1312 -49.1288 -49.1284
   -18.3903 -17.6884 -17.5605 -17.4952 -17.3616 -17.3555 -10.0800  -9.5884
    -9.1320  -9.1318  -9.0464  -8.7665  -8.4655  -8.4113  -8.2567  -7.8806
    -7.7738  -7.6288  -7.3460  -6.9759  -6.8850  -6.6533  -6.5047  -6.3857
    -6.2253  -6.0357  -6.0208  -5.9552  -5.7252  -5.5713  -4.4472  -4.3877
    -4.2913  -4.0693

     occupation numbers 
     1.0000   1.0000   1.0000   1.0000   1.0000   1.0000   1.0000   1.0000
     1.0000   1.0000   1.0000   1.0000   1.0000   1.0000   1.0000   1.0000
     1.0000   1.0000   1.0000   1.0000   1.0000   1.0000   1.0000   1.0000
     1.0000   1.0000   1.0000   1.0000   1.0000   1.0000   1.0000   1.0000
     1.0000   1.0000   1.0000   1.0000   1.0000   1.0000   0.0000   0.0000
     0.0000   0.0000

          k = 0.1250 0.3608 0.0000 ( 52572 PWs)   bands (ev):

   -77.4066 -77.4065 -49.1407 -49.1401 -49.1316 -49.1309 -49.1291 -49.1284
   -18.2712 -17.6942 -17.6243 -17.5420 -17.3948 -17.3722 -10.0308  -9.5633
    -9.1791  -9.1244  -8.9613  -8.5897  -8.5827  -8.3547  -8.1224  -7.9366
    -7.6647  -7.4876  -7.3865  -7.0618  -6.9787  -6.8534  -6.5606  -6.3498
    -6.2277  -6.0481  -5.9841  -5.9223  -5.7776  -5.5738  -4.4446  -4.3614
    -4.3179  -4.1383

     occupation numbers 
     1.0000   1.0000   1.0000   1.0000   1.0000   1.0000   1.0000   1.0000
     1.0000   1.0000   1.0000   1.0000   1.0000   1.0000   1.0000   1.0000
     1.0000   1.0000   1.0000   1.0000   1.0000   1.0000   1.0000   1.0000
     1.0000   1.0000   1.0000   1.0000   1.0000   1.0000   1.0000   1.0000
     1.0000   1.0000   1.0000   1.0000   1.0000   1.0000   0.0000   0.0000
     0.0000   0.0000

          k = 0.1250 0.5052 0.0000 ( 52542 PWs)   bands (ev):

   -77.4066 -77.4065 -49.1406 -49.1403 -49.1317 -49.1306 -49.1294 -49.1283
   -18.1275 -17.8503 -17.5696 -17.5484 -17.4502 -17.3861 -10.0070  -9.4763
    -9.2129  -9.0426  -8.7823  -8.7496  -8.5713  -8.3031  -8.1803  -7.8907
    -7.8232  -7.4444  -7.3918  -7.0898  -6.8631  -6.7948  -6.5951  -6.4793
    -6.2551  -6.0382  -5.9541  -5.8688  -5.8102  -5.6010  -4.3757  -4.3705
    -4.2776  -4.1842

     occupation numbers 
     1.0000   1.0000   1.0000   1.0000   1.0000   1.0000   1.0000   1.0000
     1.0000   1.0000   1.0000   1.0000   1.0000   1.0000   1.0000   1.0000
     1.0000   1.0000   1.0000   1.0000   1.0000   1.0000   1.0000   1.0000
     1.0000   1.0000   1.0000   1.0000   1.0000   1.0000   1.0000   1.0000
     1.0000   1.0000   1.0000   1.0000   1.0000   1.0000   0.0000   0.0000
     0.0000   0.0000

          k = 0.2500 0.4330 0.0000 ( 52526 PWs)   bands (ev):

   -77.4066 -77.4065 -49.1406 -49.1403 -49.1317 -49.1305 -49.1294 -49.1283
   -18.1400 -17.8078 -17.6079 -17.5581 -17.4292 -17.3899  -9.8881  -9.5743
    -9.1535  -9.1286  -8.8432  -8.7768  -8.5625  -8.3170  -8.1947  -7.8952
    -7.7507  -7.4259  -7.2692  -7.0012  -6.9500  -6.8914  -6.6514  -6.5202
    -6.2318  -6.0324  -5.8809  -5.8715  -5.8012  -5.6058  -4.3880  -4.3729
    -4.2596  -4.1215

     occupation numbers 
     1.0000   1.0000   1.0000   1.0000   1.0000   1.0000   1.0000   1.0000
     1.0000   1.0000   1.0000   1.0000   1.0000   1.0000   1.0000   1.0000
     1.0000   1.0000   1.0000   1.0000   1.0000   1.0000   1.0000   1.0000
     1.0000   1.0000   1.0000   1.0000   1.0000   1.0000   1.0000   1.0000
     1.0000   1.0000   1.0000   1.0000   1.0000   1.0000   0.0000   0.0000
     0.0000   0.0000

          k = 0.2500 0.5774 0.0000 ( 52520 PWs)   bands (ev):

   -77.4066 -77.4065 -49.1405 -49.1404 -49.1317 -49.1302 -49.1297 -49.1282
   -18.0273 -17.9129 -17.6350 -17.5033 -17.4678 -17.4009  -9.8022  -9.5565
    -9.1628  -9.0651  -8.9497  -8.6560  -8.6159  -8.4544  -8.2893  -7.9308
    -7.4570  -7.3957  -7.2526  -7.2122  -6.9439  -6.7497  -6.6841  -6.6032
    -6.2458  -6.0215  -5.8792  -5.8389  -5.7542  -5.6480  -4.3872  -4.3004
    -4.2724  -4.0916

     occupation numbers 
     1.0000   1.0000   1.0000   1.0000   1.0000   1.0000   1.0000   1.0000
     1.0000   1.0000   1.0000   1.0000   1.0000   1.0000   1.0000   1.0000
     1.0000   1.0000   1.0000   1.0000   1.0000   1.0000   1.0000   1.0000
     1.0000   1.0000   1.0000   1.0000   1.0000   1.0000   1.0000   1.0000
     1.0000   1.0000   1.0000   1.0000   1.0000   1.0000   0.0000   0.0000
     0.0000   0.0000

 ------ SPIN DOWN ----------


          k = 0.0000 0.0000 0.0000 ( 52593 PWs)   bands (ev):

   -74.4676 -74.4673 -46.2203 -46.2189 -46.1904 -46.1904 -46.1866 -46.1866
   -18.4713 -17.7632 -17.4557 -17.4557 -17.3621 -17.3621  -9.8467  -9.3827
    -8.8941  -8.8941  -8.7450  -8.7450  -8.6105  -8.0358  -7.6350  -7.6350
    -7.3458  -7.3458  -7.3457  -6.6625  -6.3116  -6.3116  -5.7745  -5.7745
    -3.7958  -3.7865  -3.7865  -3.7093  -3.4517  -3.4517  -2.9129  -2.9129
    -2.6412  -2.6412

     occupation numbers 
     1.0000   1.0000   1.0000   1.0000   1.0000   1.0000   1.0000   1.0000
     1.0000   1.0000   1.0000   1.0000   1.0000   1.0000   1.0000   1.0000
     1.0000   1.0000   1.0000   1.0000   1.0000   1.0000   1.0000   1.0000
     1.0000   1.0000   1.0000   1.0000   1.0000   1.0000   1.0000   1.0000
     0.0000   0.0000   0.0000   0.0000   0.0000   0.0000   0.0000   0.0000
     0.0000   0.0000

          k = 0.0000 0.1443 0.0000 ( 52628 PWs)   bands (ev):

   -74.4676 -74.4673 -46.2203 -46.2190 -46.1904 -46.1903 -46.1867 -46.1866
   -18.4389 -17.7444 -17.5006 -17.4745 -17.3655 -17.3646  -9.8544  -9.3767
    -8.9232  -8.9126  -8.7996  -8.7644  -8.3520  -7.8392  -7.7190  -7.6627
    -7.3661  -7.3220  -7.2651  -6.6711  -6.3537  -6.3067  -6.0496  -5.8456
    -3.8454  -3.7411  -3.7170  -3.6501  -3.4721  -3.4650  -2.9186  -2.9094
    -2.7291  -2.6600

     occupation numbers 
     1.0000   1.0000   1.0000   1.0000   1.0000   1.0000   1.0000   1.0000
     1.0000   1.0000   1.0000   1.0000   1.0000   1.0000   1.0000   1.0000
     1.0000   1.0000   1.0000   1.0000   1.0000   1.0000   1.0000   1.0000
     1.0000   1.0000   1.0000   1.0000   1.0000   1.0000   1.0000   1.0000
     0.0000   0.0000   0.0000   0.0000   0.0000   0.0000   0.0000   0.0000
     0.0000   0.0000

          k = 0.0000 0.2887 0.0000 ( 52560 PWs)   bands (ev):

   -74.4675 -74.4673 -46.2201 -46.2191 -46.1905 -46.1900 -46.1870 -46.1865
   -18.3459 -17.6914 -17.6180 -17.5118 -17.3861 -17.3790  -9.8550  -9.3521
    -9.0534  -8.9291  -8.7819  -8.4956  -8.0027  -7.9349  -7.7360  -7.4281
    -7.4126  -7.2990  -7.0930  -6.7080  -6.6873  -6.3952  -6.2960  -5.9879
    -3.8772  -3.7646  -3.6528  -3.5372  -3.4996  -3.4656  -2.9374  -2.9252
    -2.8009  -2.7040

     occupation numbers 
     1.0000   1.0000   1.0000   1.0000   1.0000   1.0000   1.0000   1.0000
     1.0000   1.0000   1.0000   1.0000   1.0000   1.0000   1.0000   1.0000
     1.0000   1.0000   1.0000   1.0000   1.0000   1.0000   1.0000   1.0000
     1.0000   1.0000   1.0000   1.0000   1.0000   1.0000   1.0000   1.0000
     0.0000   0.0000   0.0000   0.0000   0.0000   0.0000   0.0000   0.0000
     0.0000   0.0000

          k = 0.0000 0.4330 0.0000 ( 52578 PWs)   bands (ev):

   -74.4675 -74.4674 -46.2200 -46.2193 -46.1906 -46.1896 -46.1874 -46.1864
   -18.2087 -17.7773 -17.6156 -17.5431 -17.4369 -17.3948  -9.8598  -9.2701
    -9.1379  -8.8196  -8.6241  -8.2758  -8.2470  -7.7793  -7.6621  -7.4956
    -7.3281  -7.3056  -7.0007  -6.9607  -6.7606  -6.4893  -6.2964  -6.0356
    -3.9190  -3.8896  -3.6294  -3.5134  -3.5028  -3.4004  -2.9682  -2.8885
    -2.7850  -2.7375

     occupation numbers 
     1.0000   1.0000   1.0000   1.0000   1.0000   1.0000   1.0000   1.0000
     1.0000   1.0000   1.0000   1.0000   1.0000   1.0000   1.0000   1.0000
     1.0000   1.0000   1.0000   1.0000   1.0000   1.0000   1.0000   1.0000
     1.0000   1.0000   1.0000   1.0000   1.0000   1.0000   1.0000   1.0000
     0.0000   0.0000   0.0000   0.0000   0.0000   0.0000   0.0000   0.0000
     0.0000   0.0000

          k = 0.0000-0.5774 0.0000 ( 52578 PWs)   bands (ev):

   -74.4675 -74.4674 -46.2198 -46.2194 -46.1907 -46.1894 -46.1876 -46.1863
   -18.1033 -17.8917 -17.5551 -17.5543 -17.4890 -17.4016  -9.8674  -9.2070
    -9.1679  -8.6302  -8.5114  -8.4955  -8.1546  -7.8594  -7.6660  -7.4802
    -7.4795  -7.3133  -7.0123  -6.7848  -6.7390  -6.5518  -6.3411  -5.9989
    -3.9641  -3.9408  -3.6390  -3.5137  -3.4914  -3.3764  -2.9843  -2.8621
    -2.7471  -2.7460

     occupation numbers 
     1.0000   1.0000   1.0000   1.0000   1.0000   1.0000   1.0000   1.0000
     1.0000   1.0000   1.0000   1.0000   1.0000   1.0000   1.0000   1.0000
     1.0000   1.0000   1.0000   1.0000   1.0000   1.0000   1.0000   1.0000
     1.0000   1.0000   1.0000   1.0000   1.0000   1.0000   1.0000   1.0000
     0.0000   0.0000   0.0000   0.0000   0.0000   0.0000   0.0000   0.0000
     0.0000   0.0000

          k = 0.1250 0.2165 0.0000 ( 52635 PWs)   bands (ev):

   -74.4676 -74.4673 -46.2202 -46.2191 -46.1905 -46.1901 -46.1870 -46.1865
   -18.3761 -17.7085 -17.5727 -17.5122 -17.3785 -17.3716  -9.8454  -9.3722
    -9.0038  -8.9644  -8.8067  -8.5589  -8.0891  -7.8777  -7.6998  -7.5467
    -7.4374  -7.2597  -7.1572  -6.7326  -6.4295  -6.4045  -6.2897  -5.9705
    -3.8359  -3.7944  -3.6348  -3.5825  -3.4814  -3.4804  -2.9632  -2.8845
    -2.7975  -2.6850

     occupation numbers 
     1.0000   1.0000   1.0000   1.0000   1.0000   1.0000   1.0000   1.0000
     1.0000   1.0000   1.0000   1.0000   1.0000   1.0000   1.0000   1.0000
     1.0000   1.0000   1.0000   1.0000   1.0000   1.0000   1.0000   1.0000
     1.0000   1.0000   1.0000   1.0000   1.0000   1.0000   1.0000   1.0000
     0.0000   0.0000   0.0000   0.0000   0.0000   0.0000   0.0000   0.0000
     0.0000   0.0000

          k = 0.1250 0.3608 0.0000 ( 52572 PWs)   bands (ev):

   -74.4675 -74.4674 -46.2200 -46.2192 -46.1906 -46.1897 -46.1873 -46.1864
   -18.2596 -17.7017 -17.6440 -17.5590 -17.4120 -17.3877  -9.8070  -9.3448
    -9.0695  -8.9427  -8.7159  -8.3139  -8.1540  -7.7714  -7.7138  -7.5378
    -7.2472  -7.2162  -7.1515  -6.9575  -6.5977  -6.4484  -6.2948  -6.1027
    -3.8804  -3.8385  -3.6425  -3.5670  -3.4613  -3.4346  -2.9777  -2.8547
    -2.8051  -2.7208

     occupation numbers 
     1.0000   1.0000   1.0000   1.0000   1.0000   1.0000   1.0000   1.0000
     1.0000   1.0000   1.0000   1.0000   1.0000   1.0000   1.0000   1.0000
     1.0000   1.0000   1.0000   1.0000   1.0000   1.0000   1.0000   1.0000
     1.0000   1.0000   1.0000   1.0000   1.0000   1.0000   1.0000   1.0000
     0.0000   0.0000   0.0000   0.0000   0.0000   0.0000   0.0000   0.0000
     0.0000   0.0000

          k = 0.1250 0.5052 0.0000 ( 52542 PWs)   bands (ev):

   -74.4675 -74.4674 -46.2198 -46.2194 -46.1907 -46.1893 -46.1877 -46.1863
   -18.1187 -17.8535 -17.5865 -17.5678 -17.4677 -17.4013  -9.7889  -9.2575
    -9.1144  -8.7848  -8.5386  -8.4696  -8.2099  -7.8534  -7.6669  -7.5388
    -7.4177  -7.2301  -6.9056  -6.8403  -6.7203  -6.5279  -6.3082  -6.0753
    -3.9368  -3.9196  -3.6358  -3.5989  -3.4434  -3.3905  -2.9393  -2.8509
    -2.7540  -2.7433

     occupation numbers 
     1.0000   1.0000   1.0000   1.0000   1.0000   1.0000   1.0000   1.0000
     1.0000   1.0000   1.0000   1.0000   1.0000   1.0000   1.0000   1.0000
     1.0000   1.0000   1.0000   1.0000   1.0000   1.0000   1.0000   1.0000
     1.0000   1.0000   1.0000   1.0000   1.0000   1.0000   1.0000   1.0000
     0.0000   0.0000   0.0000   0.0000   0.0000   0.0000   0.0000   0.0000
     0.0000   0.0000

          k = 0.2500 0.4330 0.0000 ( 52526 PWs)   bands (ev):

   -74.4675 -74.4674 -46.2198 -46.2194 -46.1908 -46.1892 -46.1878 -46.1863
   -18.1315 -17.8101 -17.6248 -17.5774 -17.4469 -17.4055  -9.6694  -9.3555
    -8.9939  -8.9666  -8.5896  -8.4653  -8.2205  -7.8468  -7.6794  -7.5791
    -7.3785  -7.1301  -6.9975  -6.7860  -6.5650  -6.5324  -6.2584  -6.2214
    -3.9310  -3.8468  -3.7082  -3.6078  -3.4208  -3.4109  -2.9141  -2.8178
    -2.7588  -2.7398

     occupation numbers 
     1.0000   1.0000   1.0000   1.0000   1.0000   1.0000   1.0000   1.0000
     1.0000   1.0000   1.0000   1.0000   1.0000   1.0000   1.0000   1.0000
     1.0000   1.0000   1.0000   1.0000   1.0000   1.0000   1.0000   1.0000
     1.0000   1.0000   1.0000   1.0000   1.0000   1.0000   1.0000   1.0000
     0.0000   0.0000   0.0000   0.0000   0.0000   0.0000   0.0000   0.0000
     0.0000   0.0000

          k = 0.2500 0.5774 0.0000 ( 52520 PWs)   bands (ev):

   -74.4675 -74.4674 -46.2197 -46.2195 -46.1908 -46.1889 -46.1882 -46.1862
   -18.0212 -17.9120 -17.6519 -17.5225 -17.4859 -17.4163  -9.5856  -9.3402
    -8.9952  -8.8165  -8.7663  -8.4165  -8.2236  -8.1362  -7.6433  -7.6311
    -7.1558  -7.1048  -6.9599  -6.7024  -6.6151  -6.5815  -6.2715  -6.1996
    -3.9228  -3.8968  -3.7303  -3.6283  -3.4103  -3.3995  -2.8373  -2.8354
    -2.7671  -2.7014

     occupation numbers 
     1.0000   1.0000   1.0000   1.0000   1.0000   1.0000   1.0000   1.0000
     1.0000   1.0000   1.0000   1.0000   1.0000   1.0000   1.0000   1.0000
     1.0000   1.0000   1.0000   1.0000   1.0000   1.0000   1.0000   1.0000
     1.0000   1.0000   1.0000   1.0000   1.0000   1.0000   1.0000   1.0000
     0.0000   0.0000   0.0000   0.0000   0.0000   0.0000   0.0000   0.0000
     0.0000   0.0000

     the Fermi energy is    -4.9346 ev

!    total energy              =    -512.08856926 Ry
     estimated scf accuracy    <          9.1E-14 Ry
     smearing contrib. (-TS)   =      -0.00000000 Ry
     internal energy E=F+TS    =    -512.08856926 Ry

     The total energy is F=E-TS. E is the sum of the following terms:
     one-electron contribution =   -1703.12209819 Ry
     hartree contribution      =     845.80893410 Ry
     xc contribution           =     -99.95649593 Ry
     ewald contribution        =     445.18109075 Ry

     total magnetization       =     6.00 Bohr mag/cell
     absolute magnetization    =     7.13 Bohr mag/cell

     convergence has been achieved in  16 iterations

     Writing all to output data dir ./cri3_90Ry_k8x8x1.save/
 
     init_run     :      9.90s CPU     10.44s WALL (       1 calls)
     electrons    :    648.64s CPU    664.18s WALL (       1 calls)

     Called by init_run:
     wfcinit      :      8.71s CPU      9.15s WALL (       1 calls)
     wfcinit:atom :      0.12s CPU      0.20s WALL (      20 calls)
     wfcinit:wfcr :      8.08s CPU      8.36s WALL (      20 calls)
     potinit      :      0.31s CPU      0.32s WALL (       1 calls)
     hinit0       :      0.50s CPU      0.56s WALL (       1 calls)

     Called by electrons:
     c_bands      :    569.26s CPU    582.42s WALL (      16 calls)
     sum_band     :     75.92s CPU     77.69s WALL (      16 calls)
     v_of_rho     :      0.74s CPU      0.75s WALL (      17 calls)
     v_h          :      0.32s CPU      0.33s WALL (      17 calls)
     v_xc         :      0.41s CPU      0.42s WALL (      17 calls)
     mix_rho      :      2.42s CPU      2.50s WALL (      16 calls)

     Called by c_bands:
     init_us_2    :      8.51s CPU      8.62s WALL (     660 calls)
     init_us_2:cp :      8.49s CPU      8.62s WALL (     660 calls)
     cegterg      :    538.58s CPU    551.44s WALL (     326 calls)

     Called by sum_band:
     sum_band:wei :      0.01s CPU      0.01s WALL (      16 calls)
     sum_band:loo :     74.78s CPU     76.53s WALL (      16 calls)
     sum_band:buf :      1.57s CPU      1.59s WALL (     320 calls)
     sum_band:ini :      4.14s CPU      4.19s WALL (     320 calls)

     Called by *egterg:
     cdiaghg      :      9.17s CPU     10.40s WALL (    1978 calls)
     cegterg:over :     26.88s CPU     27.30s WALL (    1658 calls)
     cegterg:upda :     49.51s CPU     50.11s WALL (    1658 calls)
     cegterg:last :     55.99s CPU     56.55s WALL (     902 calls)
     cdiaghg:chol :      0.88s CPU      0.91s WALL (    1978 calls)
     cdiaghg:inve :      0.46s CPU      0.48s WALL (    1978 calls)
     cdiaghg:para :      0.69s CPU      0.72s WALL (    3956 calls)
     h_psi        :    392.67s CPU    402.59s WALL (    2004 calls)
     g_psi        :      1.81s CPU      1.84s WALL (    1658 calls)

     Called by h_psi:
     h_psi:calbec :     24.26s CPU     24.62s WALL (    2004 calls)
     vloc_psi     :    333.61s CPU    342.60s WALL (    2004 calls)
     add_vuspsi   :     30.05s CPU     30.34s WALL (    2004 calls)

     General routines
     calbec       :     24.24s CPU     24.61s WALL (    2004 calls)
     fft          :      0.81s CPU      0.87s WALL (      83 calls)
     ffts         :      0.29s CPU      0.30s WALL (      32 calls)
     fftw         :    271.91s CPU    279.47s WALL (  102366 calls)
 
     Parallel routines
 
     PWSCF        :  10m59.53s CPU  11m21.05s WALL

 
   This run was terminated on:  10:27: 2  19Jan2024            

=------------------------------------------------------------------------------=
   JOB DONE.
=------------------------------------------------------------------------------=
