
     Program PWSCF v.7.0 starts on 18Jan2024 at 15:29:10 

     This program is part of the open-source Quantum ESPRESSO suite
     for quantum simulation of materials; please cite
         "P. Giannozzi et al., J. Phys.:Condens. Matter 21 395502 (2009);
         "P. Giannozzi et al., J. Phys.:Condens. Matter 29 465901 (2017);
         "P. Giannozzi et al., J. Chem. Phys. 152 154105 (2020);
          URL http://www.quantum-espresso.org", 
     in publications or presentations arising from this work. More details at
     http://www.quantum-espresso.org/quote

     Parallel version (MPI), running on    12 processors

     MPI processes distributed on     1 nodes
     R & G space division:  proc/nbgrp/npool/nimage =      12
     117334 MiB available memory on the printing compute node when the environment starts
 
     Reading input from cri3-exp-nosoc_90Ry_k16x16x1.scf.in

     Current dimensions of program PWSCF are:
     Max number of different atomic species (ntypx) = 10
     Max number of k-points (npk) =  40000
     Max angular momentum in pseudopotentials (lmaxx) =  4

     Subspace diagonalization in iterative solution of the eigenvalue problem:
     one sub-group per band group will be used
     scalapack distributed-memory algorithm (size of sub-group:  3*  3 procs)

 
     Parallelization info
     --------------------
     sticks:   dense  smooth     PW     G-vecs:    dense   smooth      PW
     Min         348     348     92                35048    35048    4812
     Max         349     349     93                35057    35057    4819
     Sum        4177    4177   1111               420595   420595   57791
 
     Using Slab Decomposition
 


     bravais-lattice index     =            4
     lattice parameter (alat)  =      12.9767  a.u.
     unit-cell volume          =    3645.8815 (a.u.)^3
     number of atoms/cell      =            8
     number of atomic types    =            2
     number of electrons       =        70.00
     number of Kohn-Sham states=           42
     kinetic-energy cutoff     =      90.0000  Ry
     charge density cutoff     =     360.0000  Ry
     scf convergence threshold =      1.0E-13
     mixing beta               =       0.7000
     number of iterations used =            8  plain     mixing
     Exchange-correlation= PZ
                           (   1   1   0   0   0   0   0)

     celldm(1)=  12.976749  celldm(2)=   0.000000  celldm(3)=   1.926523
     celldm(4)=   0.000000  celldm(5)=   0.000000  celldm(6)=   0.000000

     crystal axes: (cart. coord. in units of alat)
               a(1) = (   1.000000   0.000000   0.000000 )  
               a(2) = (  -0.500000   0.866025   0.000000 )  
               a(3) = (   0.000000   0.000000   1.926523 )  

     reciprocal axes: (cart. coord. in units 2 pi/alat)
               b(1) = (  1.000000  0.577350  0.000000 )  
               b(2) = (  0.000000  1.154701  0.000000 )  
               b(3) = (  0.000000  0.000000  0.519070 )  


     PseudoPot. # 1 for Cr read from file:
     ./Cr_Alejandro.upf
     MD5 check sum: 19f8874af457815d5c8e16c7b8c57f71
     Pseudo is Norm-conserving + core correction, Zval = 14.0
     Generated using ONCVPSP code by D. R. Hamann
     Using radial grid of 1600 points,  6 beta functions with: 
                l(1) =   0
                l(2) =   0
                l(3) =   1
                l(4) =   1
                l(5) =   2
                l(6) =   2

     PseudoPot. # 2 for I  read from file:
     ./I_Alejandro.upf
     MD5 check sum: d0d4d45a39a9ecd37d4d9deb6bd296a3
     Pseudo is Norm-conserving + core correction, Zval =  7.0
     Generated using ONCVPSP code by D. R. Hamann
     Using radial grid of 1196 points,  6 beta functions with: 
                l(1) =   0
                l(2) =   0
                l(3) =   1
                l(4) =   1
                l(5) =   2
                l(6) =   2

     atomic species   valence    mass     pseudopotential
        Cr            14.00    51.99000     Cr( 1.00)
        I              7.00   126.90000     I ( 1.00)

     Starting magnetic structure 
     atomic species   magnetization
        Cr           1.000
        I            0.000

      6 Sym. Ops. (no inversion) found ( 3 have fractional translation)


                                    s                        frac. trans.

      isym =  1     identity                                     

 cryst.   s( 1) = (     1          0          0      )
                  (     0          1          0      )
                  (     0          0          1      )

 cart.    s( 1) = (  1.0000000  0.0000000  0.0000000 )
                  (  0.0000000  1.0000000  0.0000000 )
                  (  0.0000000  0.0000000  1.0000000 )


      isym =  2     120 deg rotation - cryst. axis [0,0,1]       

 cryst.   s( 2) = (     0          1          0      )
                  (    -1         -1          0      )
                  (     0          0          1      )

 cart.    s( 2) = ( -0.5000000 -0.8660254  0.0000000 )
                  (  0.8660254 -0.5000000  0.0000000 )
                  (  0.0000000  0.0000000  1.0000000 )


      isym =  3     120 deg rotation - cryst. axis [0,0,-1]      

 cryst.   s( 3) = (    -1         -1          0      )
                  (     1          0          0      )
                  (     0          0          1      )

 cart.    s( 3) = ( -0.5000000  0.8660254  0.0000000 )
                  ( -0.8660254 -0.5000000  0.0000000 )
                  (  0.0000000  0.0000000  1.0000000 )


      isym =  4     inv. 180 deg rotation - cart. axis [0,1,0]   

 cryst.   s( 4) = (     1          0          0      )    f =( -0.3333333 )
                  (    -1         -1          0      )       (  0.3333333 )
                  (     0          0          1      )       (  0.0000000 )

 cart.    s( 4) = (  1.0000000  0.0000000  0.0000000 )    f =( -0.5000000 )
                  (  0.0000000 -1.0000000  0.0000000 )       (  0.2886751 )
                  (  0.0000000  0.0000000  1.0000000 )       (  0.0000000 )


      isym =  5     inv. 180 deg rotation - cryst. axis [1,-1,0] 

 cryst.   s( 5) = (     0          1          0      )    f =( -0.3333333 )
                  (     1          0          0      )       (  0.3333333 )
                  (     0          0          1      )       (  0.0000000 )

 cart.    s( 5) = ( -0.5000000  0.8660254  0.0000000 )    f =( -0.5000000 )
                  (  0.8660254  0.5000000  0.0000000 )       (  0.2886751 )
                  (  0.0000000  0.0000000  1.0000000 )       (  0.0000000 )


      isym =  6     inv. 180 deg rotation - cryst. axis [2,1,0]  

 cryst.   s( 6) = (    -1         -1          0      )    f =( -0.3333333 )
                  (     0          1          0      )       (  0.3333333 )
                  (     0          0          1      )       (  0.0000000 )

 cart.    s( 6) = ( -0.5000000 -0.8660254  0.0000000 )    f =( -0.5000000 )
                  ( -0.8660254  0.5000000  0.0000000 )       (  0.2886751 )
                  (  0.0000000  0.0000000  1.0000000 )       (  0.0000000 )


     point group C_3v (3m)  
     there are  3 classes
     the character table:

       E     2C3   3s_v 
A_1    1.00  1.00  1.00
A_2    1.00  1.00 -1.00
E      2.00 -1.00  0.00

     the symmetry operations in each class and the name of the first element:

     E        1
          identity                                               
     2C3      2    3
          120 deg rotation - cryst. axis [0,0,1]                 
     3s_v     4    6    5
          inv. 180 deg rotation - cart. axis [0,1,0]             

   Cartesian axes

     site n.     atom                  positions (alat units)
         1           Cr  tau(   1) = (   0.0000000   0.0000000   0.4846161  )
         2           Cr  tau(   2) = (   0.0000000   0.5773503   0.4846161  )
         3           I   tau(   3) = (  -0.1753225   0.8510331   0.7123856  )
         4           I   tau(   4) = (   0.3246775   0.5923426   0.7123856  )
         5           I   tau(   5) = (  -0.1493550   0.2886751   0.7123856  )
         6           I   tau(   6) = (  -0.3246775   0.5923426   0.2568467  )
         7           I   tau(   7) = (   0.1753225   0.8510331   0.2568467  )
         8           I   tau(   8) = (   0.1493550   0.2886751   0.2568467  )

   Crystallographic axes

     site n.     atom                  positions (cryst. coord.)
         1           Cr  tau(   1) = (  0.0000000  0.0000000  0.2515496  )
         2           Cr  tau(   2) = (  0.3333333  0.6666667  0.2515496  )
         3           I   tau(   3) = (  0.3160217  0.9826883  0.3697779  )
         4           I   tau(   4) = (  0.6666667  0.6839783  0.3697779  )
         5           I   tau(   5) = (  0.0173117  0.3333333  0.3697779  )
         6           I   tau(   6) = (  0.0173117  0.6839783  0.1333214  )
         7           I   tau(   7) = (  0.6666667  0.9826883  0.1333214  )
         8           I   tau(   8) = (  0.3160217  0.3333333  0.1333214  )

     number of k points=    30  Gaussian smearing, width (Ry)=  0.0050
                       cart. coord. in units 2pi/alat
        k(    1) = (   0.0000000   0.0000000   0.0000000), wk =   0.0039062
        k(    2) = (   0.0000000   0.0721688   0.0000000), wk =   0.0234375
        k(    3) = (   0.0000000   0.1443376   0.0000000), wk =   0.0234375
        k(    4) = (   0.0000000   0.2165064   0.0000000), wk =   0.0234375
        k(    5) = (   0.0000000   0.2886751   0.0000000), wk =   0.0234375
        k(    6) = (   0.0000000   0.3608439   0.0000000), wk =   0.0234375
        k(    7) = (   0.0000000   0.4330127   0.0000000), wk =   0.0234375
        k(    8) = (   0.0000000   0.5051815   0.0000000), wk =   0.0234375
        k(    9) = (   0.0000000  -0.5773503   0.0000000), wk =   0.0117188
        k(   10) = (   0.0625000   0.1082532   0.0000000), wk =   0.0234375
        k(   11) = (   0.0625000   0.1804220   0.0000000), wk =   0.0468750
        k(   12) = (   0.0625000   0.2525907   0.0000000), wk =   0.0468750
        k(   13) = (   0.0625000   0.3247595   0.0000000), wk =   0.0468750
        k(   14) = (   0.0625000   0.3969283   0.0000000), wk =   0.0468750
        k(   15) = (   0.0625000   0.4690971   0.0000000), wk =   0.0468750
        k(   16) = (   0.0625000   0.5412659   0.0000000), wk =   0.0468750
        k(   17) = (   0.1250000   0.2165064   0.0000000), wk =   0.0234375
        k(   18) = (   0.1250000   0.2886751   0.0000000), wk =   0.0468750
        k(   19) = (   0.1250000   0.3608439   0.0000000), wk =   0.0468750
        k(   20) = (   0.1250000   0.4330127   0.0000000), wk =   0.0468750
        k(   21) = (   0.1250000   0.5051815   0.0000000), wk =   0.0468750
        k(   22) = (   0.1250000   0.5773503   0.0000000), wk =   0.0234375
        k(   23) = (   0.1875000   0.3247595   0.0000000), wk =   0.0234375
        k(   24) = (   0.1875000   0.3969283   0.0000000), wk =   0.0468750
        k(   25) = (   0.1875000   0.4690971   0.0000000), wk =   0.0468750
        k(   26) = (   0.1875000   0.5412659   0.0000000), wk =   0.0468750
        k(   27) = (   0.2500000   0.4330127   0.0000000), wk =   0.0234375
        k(   28) = (   0.2500000   0.5051815   0.0000000), wk =   0.0468750
        k(   29) = (   0.2500000   0.5773503   0.0000000), wk =   0.0234375
        k(   30) = (   0.3125000   0.5412659   0.0000000), wk =   0.0234375

                       cryst. coord.
        k(    1) = (   0.0000000   0.0000000   0.0000000), wk =   0.0039062
        k(    2) = (   0.0000000   0.0625000   0.0000000), wk =   0.0234375
        k(    3) = (   0.0000000   0.1250000   0.0000000), wk =   0.0234375
        k(    4) = (   0.0000000   0.1875000   0.0000000), wk =   0.0234375
        k(    5) = (   0.0000000   0.2500000   0.0000000), wk =   0.0234375
        k(    6) = (   0.0000000   0.3125000   0.0000000), wk =   0.0234375
        k(    7) = (   0.0000000   0.3750000   0.0000000), wk =   0.0234375
        k(    8) = (   0.0000000   0.4375000   0.0000000), wk =   0.0234375
        k(    9) = (   0.0000000  -0.5000000   0.0000000), wk =   0.0117188
        k(   10) = (   0.0625000   0.0625000   0.0000000), wk =   0.0234375
        k(   11) = (   0.0625000   0.1250000   0.0000000), wk =   0.0468750
        k(   12) = (   0.0625000   0.1875000   0.0000000), wk =   0.0468750
        k(   13) = (   0.0625000   0.2500000   0.0000000), wk =   0.0468750
        k(   14) = (   0.0625000   0.3125000   0.0000000), wk =   0.0468750
        k(   15) = (   0.0625000   0.3750000   0.0000000), wk =   0.0468750
        k(   16) = (   0.0625000   0.4375000   0.0000000), wk =   0.0468750
        k(   17) = (   0.1250000   0.1250000   0.0000000), wk =   0.0234375
        k(   18) = (   0.1250000   0.1875000   0.0000000), wk =   0.0468750
        k(   19) = (   0.1250000   0.2500000   0.0000000), wk =   0.0468750
        k(   20) = (   0.1250000   0.3125000   0.0000000), wk =   0.0468750
        k(   21) = (   0.1250000   0.3750000   0.0000000), wk =   0.0468750
        k(   22) = (   0.1250000   0.4375000   0.0000000), wk =   0.0234375
        k(   23) = (   0.1875000   0.1875000   0.0000000), wk =   0.0234375
        k(   24) = (   0.1875000   0.2500000   0.0000000), wk =   0.0468750
        k(   25) = (   0.1875000   0.3125000   0.0000000), wk =   0.0468750
        k(   26) = (   0.1875000   0.3750000   0.0000000), wk =   0.0468750
        k(   27) = (   0.2500000   0.2500000   0.0000000), wk =   0.0234375
        k(   28) = (   0.2500000   0.3125000   0.0000000), wk =   0.0468750
        k(   29) = (   0.2500000   0.3750000   0.0000000), wk =   0.0234375
        k(   30) = (   0.3125000   0.3125000   0.0000000), wk =   0.0234375

     Dense  grid:   420595 G-vectors     FFT dimensions: (  81,  81, 160)

     Dynamical RAM for                 wfc:       2.81 MB

     Dynamical RAM for     wfc (w. buffer):     171.23 MB

     Dynamical RAM for           str. fact:       1.07 MB

     Dynamical RAM for           local pot:       0.00 MB

     Dynamical RAM for          nlocal pot:       9.62 MB

     Dynamical RAM for                qrad:       3.05 MB

     Dynamical RAM for          rho,v,vnew:       7.41 MB

     Dynamical RAM for               rhoin:       2.47 MB

     Dynamical RAM for            rho*nmix:      17.11 MB

     Dynamical RAM for           G-vectors:       2.27 MB

     Dynamical RAM for          h,s,v(r/c):       0.04 MB

     Dynamical RAM for          <psi|beta>:       0.09 MB

     Dynamical RAM for                 psi:       5.61 MB

     Dynamical RAM for                hpsi:       5.61 MB

     Dynamical RAM for      wfcinit/wfcrot:       5.93 MB

     Estimated static dynamical RAM per process >     202.93 MB

     Estimated max dynamical RAM per process >     231.40 MB

     Estimated total dynamical RAM >       2.71 GB
 ----2D----2D----2D----2D----2D----2D----2D----2D----2D----2D----2D----2D
  The code is running with the 2D cutoff
  Please refer to:
  Sohier, T., Calandra, M., & Mauri, F. (2017), 
  Density functional perturbation theory for gated two-dimensional heterostructu
 res:
  Theoretical developments and application to flexural phonons in graphene.
  Physical Review B, 96(7), 75448. https://doi.org/10.1103/PhysRevB.96.075448
 ----2D----2D----2D----2D----2D----2D----2D----2D----2D----2D----2D----2D
     Generating pointlists ...
     new r_m :   0.1637 (alat units)  2.1245 (a.u.) for type    1
     new r_m :   0.1637 (alat units)  2.1245 (a.u.) for type    2

     Initial potential from superposition of free atoms

     starting charge      69.9974, renormalised to      70.0000

     negative rho (up, down):  1.142E-07 1.434E-08
     Starting wfcs are   44 randomized atomic wfcs

     total cpu time spent up to now is       24.5 secs

     Self-consistent Calculation

     iteration #  1     ecut=    90.00 Ry     beta= 0.70
     Davidson diagonalization with overlap

---- Real-time Memory Report at c_bands before calling an iterative solver
           336 MiB given to the printing process from OS
             0 MiB allocation reported by mallinfo(arena+hblkhd)
        114564 MiB available memory on the node where the printing process lives
------------------
     c_bands:  4 eigenvalues not converged
     c_bands:  5 eigenvalues not converged
     c_bands:  5 eigenvalues not converged
     c_bands:  5 eigenvalues not converged
     c_bands:  5 eigenvalues not converged
     c_bands:  5 eigenvalues not converged
     c_bands:  5 eigenvalues not converged
     c_bands:  5 eigenvalues not converged
     c_bands:  5 eigenvalues not converged
     c_bands:  5 eigenvalues not converged
     c_bands:  5 eigenvalues not converged
     c_bands:  5 eigenvalues not converged
     c_bands:  5 eigenvalues not converged
     c_bands:  4 eigenvalues not converged
     c_bands:  5 eigenvalues not converged
     c_bands:  4 eigenvalues not converged
     c_bands:  4 eigenvalues not converged
     ethr =  5.00E-06,  avg # of iterations = 18.2

     negative rho (up, down):  2.973E-08 1.506E-09

     total cpu time spent up to now is      298.2 secs

     total energy              =    -511.37672313 Ry
     estimated scf accuracy    <       4.55738285 Ry

     total magnetization       =     6.00 Bohr mag/cell
     absolute magnetization    =    10.88 Bohr mag/cell

     iteration #  2     ecut=    90.00 Ry     beta= 0.70
     Davidson diagonalization with overlap

---- Real-time Memory Report at c_bands before calling an iterative solver
           369 MiB given to the printing process from OS
             0 MiB allocation reported by mallinfo(arena+hblkhd)
        117063 MiB available memory on the node where the printing process lives
------------------
     ethr =  6.51E-03,  avg # of iterations =  6.0

     total cpu time spent up to now is      387.5 secs

     total energy              =    -511.50233803 Ry
     estimated scf accuracy    <       0.97053955 Ry

     total magnetization       =     6.00 Bohr mag/cell
     absolute magnetization    =    10.61 Bohr mag/cell

     iteration #  3     ecut=    90.00 Ry     beta= 0.70
     Davidson diagonalization with overlap

---- Real-time Memory Report at c_bands before calling an iterative solver
           371 MiB given to the printing process from OS
             0 MiB allocation reported by mallinfo(arena+hblkhd)
        117003 MiB available memory on the node where the printing process lives
------------------
     ethr =  1.39E-03,  avg # of iterations =  7.6

     total cpu time spent up to now is      503.9 secs

     total energy              =    -511.47332376 Ry
     estimated scf accuracy    <       6.03148623 Ry

     total magnetization       =     6.00 Bohr mag/cell
     absolute magnetization    =     6.39 Bohr mag/cell

     iteration #  4     ecut=    90.00 Ry     beta= 0.70
     Davidson diagonalization with overlap

---- Real-time Memory Report at c_bands before calling an iterative solver
           374 MiB given to the printing process from OS
             0 MiB allocation reported by mallinfo(arena+hblkhd)
        116950 MiB available memory on the node where the printing process lives
------------------
     c_bands:  2 eigenvalues not converged
     ethr =  1.39E-03,  avg # of iterations =  8.2

     total cpu time spent up to now is      625.0 secs

     total energy              =    -512.05876018 Ry
     estimated scf accuracy    <       0.09952756 Ry

     total magnetization       =     6.00 Bohr mag/cell
     absolute magnetization    =     7.53 Bohr mag/cell

     iteration #  5     ecut=    90.00 Ry     beta= 0.70
     Davidson diagonalization with overlap

---- Real-time Memory Report at c_bands before calling an iterative solver
           377 MiB given to the printing process from OS
             0 MiB allocation reported by mallinfo(arena+hblkhd)
        116900 MiB available memory on the node where the printing process lives
------------------
     ethr =  1.42E-04,  avg # of iterations =  6.2

     total cpu time spent up to now is      726.1 secs

     total energy              =    -512.08613123 Ry
     estimated scf accuracy    <       0.00436540 Ry

     total magnetization       =     6.00 Bohr mag/cell
     absolute magnetization    =     7.50 Bohr mag/cell

     iteration #  6     ecut=    90.00 Ry     beta= 0.70
     Davidson diagonalization with overlap

---- Real-time Memory Report at c_bands before calling an iterative solver
           379 MiB given to the printing process from OS
             0 MiB allocation reported by mallinfo(arena+hblkhd)
        116852 MiB available memory on the node where the printing process lives
------------------
     ethr =  6.24E-06,  avg # of iterations =  4.3

     total cpu time spent up to now is      814.2 secs

     total energy              =    -512.08803696 Ry
     estimated scf accuracy    <       0.00125661 Ry

     total magnetization       =     6.00 Bohr mag/cell
     absolute magnetization    =     7.34 Bohr mag/cell

     iteration #  7     ecut=    90.00 Ry     beta= 0.70
     Davidson diagonalization with overlap

---- Real-time Memory Report at c_bands before calling an iterative solver
           381 MiB given to the printing process from OS
             0 MiB allocation reported by mallinfo(arena+hblkhd)
        116799 MiB available memory on the node where the printing process lives
------------------
     ethr =  1.80E-06,  avg # of iterations =  2.9

     total cpu time spent up to now is      901.8 secs

     total energy              =    -512.08851589 Ry
     estimated scf accuracy    <       0.00022916 Ry

     total magnetization       =     6.00 Bohr mag/cell
     absolute magnetization    =     7.15 Bohr mag/cell

     iteration #  8     ecut=    90.00 Ry     beta= 0.70
     Davidson diagonalization with overlap

---- Real-time Memory Report at c_bands before calling an iterative solver
           383 MiB given to the printing process from OS
             0 MiB allocation reported by mallinfo(arena+hblkhd)
        116777 MiB available memory on the node where the printing process lives
------------------
     ethr =  3.27E-07,  avg # of iterations =  3.3

     total cpu time spent up to now is      992.6 secs

     total energy              =    -512.08850857 Ry
     estimated scf accuracy    <       0.00031550 Ry

     total magnetization       =     6.00 Bohr mag/cell
     absolute magnetization    =     7.14 Bohr mag/cell

     iteration #  9     ecut=    90.00 Ry     beta= 0.70
     Davidson diagonalization with overlap

---- Real-time Memory Report at c_bands before calling an iterative solver
           385 MiB given to the printing process from OS
             0 MiB allocation reported by mallinfo(arena+hblkhd)
        116750 MiB available memory on the node where the printing process lives
------------------
     ethr =  3.27E-07,  avg # of iterations =  2.0

     total cpu time spent up to now is     1065.4 secs

     total energy              =    -512.08856741 Ry
     estimated scf accuracy    <       0.00000277 Ry

     total magnetization       =     6.00 Bohr mag/cell
     absolute magnetization    =     7.13 Bohr mag/cell

     iteration # 10     ecut=    90.00 Ry     beta= 0.70
     Davidson diagonalization with overlap

---- Real-time Memory Report at c_bands before calling an iterative solver
           387 MiB given to the printing process from OS
             0 MiB allocation reported by mallinfo(arena+hblkhd)
        117673 MiB available memory on the node where the printing process lives
------------------
     ethr =  3.95E-09,  avg # of iterations =  4.8

     total cpu time spent up to now is     1146.7 secs

     total energy              =    -512.08856829 Ry
     estimated scf accuracy    <       0.00000253 Ry

     total magnetization       =     6.00 Bohr mag/cell
     absolute magnetization    =     7.13 Bohr mag/cell

     iteration # 11     ecut=    90.00 Ry     beta= 0.70
     Davidson diagonalization with overlap

---- Real-time Memory Report at c_bands before calling an iterative solver
           387 MiB given to the printing process from OS
             0 MiB allocation reported by mallinfo(arena+hblkhd)
        117670 MiB available memory on the node where the printing process lives
------------------
     ethr =  3.61E-09,  avg # of iterations =  1.7

     total cpu time spent up to now is     1199.6 secs

     total energy              =    -512.08856853 Ry
     estimated scf accuracy    <       0.00000014 Ry

     total magnetization       =     6.00 Bohr mag/cell
     absolute magnetization    =     7.13 Bohr mag/cell

     iteration # 12     ecut=    90.00 Ry     beta= 0.70
     Davidson diagonalization with overlap

---- Real-time Memory Report at c_bands before calling an iterative solver
           387 MiB given to the printing process from OS
             0 MiB allocation reported by mallinfo(arena+hblkhd)
        117673 MiB available memory on the node where the printing process lives
------------------
     ethr =  1.97E-10,  avg # of iterations =  4.2

     total cpu time spent up to now is     1274.0 secs

     total energy              =    -512.08856856 Ry
     estimated scf accuracy    <       0.00000001 Ry

     total magnetization       =     6.00 Bohr mag/cell
     absolute magnetization    =     7.13 Bohr mag/cell

     iteration # 13     ecut=    90.00 Ry     beta= 0.70
     Davidson diagonalization with overlap

---- Real-time Memory Report at c_bands before calling an iterative solver
           388 MiB given to the printing process from OS
             0 MiB allocation reported by mallinfo(arena+hblkhd)
        117674 MiB available memory on the node where the printing process lives
------------------
     ethr =  2.08E-11,  avg # of iterations =  4.0

     total cpu time spent up to now is     1348.8 secs

     total energy              =    -512.08856856 Ry
     estimated scf accuracy    <          3.5E-09 Ry

     total magnetization       =     6.00 Bohr mag/cell
     absolute magnetization    =     7.13 Bohr mag/cell

     iteration # 14     ecut=    90.00 Ry     beta= 0.70
     Davidson diagonalization with overlap

---- Real-time Memory Report at c_bands before calling an iterative solver
           388 MiB given to the printing process from OS
             0 MiB allocation reported by mallinfo(arena+hblkhd)
        117673 MiB available memory on the node where the printing process lives
------------------
     ethr =  4.96E-12,  avg # of iterations =  2.0

     total cpu time spent up to now is     1408.3 secs

     total energy              =    -512.08856856 Ry
     estimated scf accuracy    <          2.6E-10 Ry

     total magnetization       =     6.00 Bohr mag/cell
     absolute magnetization    =     7.13 Bohr mag/cell

     iteration # 15     ecut=    90.00 Ry     beta= 0.70
     Davidson diagonalization with overlap

---- Real-time Memory Report at c_bands before calling an iterative solver
           388 MiB given to the printing process from OS
             0 MiB allocation reported by mallinfo(arena+hblkhd)
        117670 MiB available memory on the node where the printing process lives
------------------
     ethr =  3.76E-13,  avg # of iterations =  3.6

     total cpu time spent up to now is     1478.8 secs

     total energy              =    -512.08856856 Ry
     estimated scf accuracy    <          1.0E-11 Ry

     total magnetization       =     6.00 Bohr mag/cell
     absolute magnetization    =     7.13 Bohr mag/cell

     iteration # 16     ecut=    90.00 Ry     beta= 0.70
     Davidson diagonalization with overlap

---- Real-time Memory Report at c_bands before calling an iterative solver
           388 MiB given to the printing process from OS
             0 MiB allocation reported by mallinfo(arena+hblkhd)
        117670 MiB available memory on the node where the printing process lives
------------------
     ethr =  1.00E-13,  avg # of iterations =  2.0

     total cpu time spent up to now is     1537.4 secs

     total energy              =    -512.08856856 Ry
     estimated scf accuracy    <          6.8E-12 Ry

     total magnetization       =     6.00 Bohr mag/cell
     absolute magnetization    =     7.13 Bohr mag/cell

     iteration # 17     ecut=    90.00 Ry     beta= 0.70
     Davidson diagonalization with overlap

---- Real-time Memory Report at c_bands before calling an iterative solver
           388 MiB given to the printing process from OS
             0 MiB allocation reported by mallinfo(arena+hblkhd)
        117662 MiB available memory on the node where the printing process lives
------------------
     ethr =  1.00E-13,  avg # of iterations =  1.0

     total cpu time spent up to now is     1583.1 secs

     total energy              =    -512.08856856 Ry
     estimated scf accuracy    <          8.2E-13 Ry

     total magnetization       =     6.00 Bohr mag/cell
     absolute magnetization    =     7.13 Bohr mag/cell

     iteration # 18     ecut=    90.00 Ry     beta= 0.70
     Davidson diagonalization with overlap

---- Real-time Memory Report at c_bands before calling an iterative solver
           388 MiB given to the printing process from OS
             0 MiB allocation reported by mallinfo(arena+hblkhd)
        117194 MiB available memory on the node where the printing process lives
------------------
     ethr =  1.00E-13,  avg # of iterations =  1.0
 
     Magnetic moment per site  (integrated on atomic sphere of radius R)
     atom   1 (R=0.164)  charge= 12.4364  magn=  2.9402
     atom   2 (R=0.164)  charge= 12.4364  magn=  2.9402
     atom   3 (R=0.164)  charge=  4.1207  magn= -0.0522
     atom   4 (R=0.164)  charge=  4.1207  magn= -0.0522
     atom   5 (R=0.164)  charge=  4.1207  magn= -0.0522
     atom   6 (R=0.164)  charge=  4.1208  magn= -0.0522
     atom   7 (R=0.164)  charge=  4.1208  magn= -0.0522
     atom   8 (R=0.164)  charge=  4.1208  magn= -0.0522

     total cpu time spent up to now is     1617.3 secs

     End of self-consistent calculation

 ------ SPIN UP ------------


          k = 0.0000 0.0000 0.0000 ( 52593 PWs)   bands (ev):

   -77.4067 -77.4064 -49.1409 -49.1399 -49.1314 -49.1314 -49.1285 -49.1285
   -18.4876 -17.7429 -17.4392 -17.4392 -17.3452 -17.3452 -10.1009  -9.5993
    -9.0569  -9.0569  -9.0104  -9.0104  -8.6898  -8.2618  -8.2618  -8.2296
    -7.8281  -7.8281  -7.3842  -6.6895  -6.6895  -6.6538  -6.4589  -6.1669
    -6.1669  -6.1100  -6.0321  -6.0321  -5.6175  -5.6175  -4.4435  -4.4435
    -4.0114  -4.0114

     occupation numbers 
     1.0000   1.0000   1.0000   1.0000   1.0000   1.0000   1.0000   1.0000
     1.0000   1.0000   1.0000   1.0000   1.0000   1.0000   1.0000   1.0000
     1.0000   1.0000   1.0000   1.0000   1.0000   1.0000   1.0000   1.0000
     1.0000   1.0000   1.0000   1.0000   1.0000   1.0000   1.0000   1.0000
     1.0000   1.0000   1.0000   1.0000   1.0000   1.0000   0.0000   0.0000
     0.0000   0.0000

          k = 0.0000 0.0722 0.0000 ( 52616 PWs)   bands (ev):

   -77.4067 -77.4064 -49.1409 -49.1399 -49.1314 -49.1314 -49.1286 -49.1285
   -18.4793 -17.7381 -17.4513 -17.4443 -17.3459 -17.3454 -10.1011  -9.5974
    -9.0643  -9.0342  -9.0306  -9.0191  -8.6605  -8.2742  -8.2636  -8.1802
    -7.8314  -7.8078  -7.3741  -6.7543  -6.7215  -6.5883  -6.4458  -6.2414
    -6.1858  -6.0847  -6.0207  -6.0207  -5.6340  -5.6102  -4.4428  -4.4386
    -4.0478  -4.0176

     occupation numbers 
     1.0000   1.0000   1.0000   1.0000   1.0000   1.0000   1.0000   1.0000
     1.0000   1.0000   1.0000   1.0000   1.0000   1.0000   1.0000   1.0000
     1.0000   1.0000   1.0000   1.0000   1.0000   1.0000   1.0000   1.0000
     1.0000   1.0000   1.0000   1.0000   1.0000   1.0000   1.0000   1.0000
     1.0000   1.0000   1.0000   1.0000   1.0000   1.0000   0.0000   0.0000
     0.0000   0.0000

          k = 0.0000 0.1443 0.0000 ( 52628 PWs)   bands (ev):

   -77.4067 -77.4064 -49.1409 -49.1400 -49.1315 -49.1313 -49.1286 -49.1285
   -18.4545 -17.7241 -17.4856 -17.4578 -17.3490 -17.3477 -10.0996  -9.5928
    -9.0846  -9.0712  -9.0557  -8.9441  -8.5920  -8.3092  -8.2700  -8.0504
    -7.8408  -7.7501  -7.3501  -6.8342  -6.7927  -6.5056  -6.4693  -6.3504
    -6.2255  -6.0663  -6.0015  -6.0003  -5.6719  -5.5932  -4.4406  -4.4251
    -4.1375  -4.0378

     occupation numbers 
     1.0000   1.0000   1.0000   1.0000   1.0000   1.0000   1.0000   1.0000
     1.0000   1.0000   1.0000   1.0000   1.0000   1.0000   1.0000   1.0000
     1.0000   1.0000   1.0000   1.0000   1.0000   1.0000   1.0000   1.0000
     1.0000   1.0000   1.0000   1.0000   1.0000   1.0000   1.0000   1.0000
     1.0000   1.0000   1.0000   1.0000   1.0000   1.0000   0.0000   0.0000
     0.0000   0.0000

          k = 0.0000 0.2165 0.0000 ( 52614 PWs)   bands (ev):

   -77.4067 -77.4065 -49.1408 -49.1400 -49.1315 -49.1312 -49.1287 -49.1285
   -18.4140 -17.7015 -17.5387 -17.4757 -17.3551 -17.3549 -10.0937  -9.5855
    -9.1211  -9.0975  -9.0641  -8.8305  -8.5130  -8.3572  -8.2804  -7.8909
    -7.8407  -7.6649  -7.3297  -6.9113  -6.8780  -6.6510  -6.4213  -6.3624
    -6.2642  -6.0525  -5.9908  -5.9865  -5.7120  -5.5775  -4.4371  -4.4052
    -4.2365  -4.0742

     occupation numbers 
     1.0000   1.0000   1.0000   1.0000   1.0000   1.0000   1.0000   1.0000
     1.0000   1.0000   1.0000   1.0000   1.0000   1.0000   1.0000   1.0000
     1.0000   1.0000   1.0000   1.0000   1.0000   1.0000   1.0000   1.0000
     1.0000   1.0000   1.0000   1.0000   1.0000   1.0000   1.0000   1.0000
     1.0000   1.0000   1.0000   1.0000   1.0000   1.0000   0.0000   0.0000
     0.0000   0.0000

          k = 0.0000 0.2887 0.0000 ( 52560 PWs)   bands (ev):

   -77.4066 -77.4065 -49.1408 -49.1401 -49.1315 -49.1311 -49.1288 -49.1284
   -18.3594 -17.6715 -17.6071 -17.4946 -17.3692 -17.3634 -10.0852  -9.5696
    -9.1609  -9.1034  -9.0357  -8.7102  -8.4858  -8.3599  -8.2922  -7.8913
    -7.6777  -7.5681  -7.3379  -7.0089  -6.9694  -6.8250  -6.3663  -6.3498
    -6.2862  -6.0397  -5.9912  -5.9854  -5.7454  -5.5708  -4.4322  -4.3790
    -4.3057  -4.1256

     occupation numbers 
     1.0000   1.0000   1.0000   1.0000   1.0000   1.0000   1.0000   1.0000
     1.0000   1.0000   1.0000   1.0000   1.0000   1.0000   1.0000   1.0000
     1.0000   1.0000   1.0000   1.0000   1.0000   1.0000   1.0000   1.0000
     1.0000   1.0000   1.0000   1.0000   1.0000   1.0000   1.0000   1.0000
     1.0000   1.0000   1.0000   1.0000   1.0000   1.0000   0.0000   0.0000
     0.0000   0.0000

          k = 0.0000 0.3608 0.0000 ( 52574 PWs)   bands (ev):

   -77.4066 -77.4065 -49.1407 -49.1401 -49.1316 -49.1310 -49.1290 -49.1284
   -18.2931 -17.6866 -17.6355 -17.5119 -17.3910 -17.3723 -10.0798  -9.5369
    -9.1961  -9.0873  -8.9685  -8.6132  -8.5519  -8.2974  -8.2731  -7.9239
    -7.5573  -7.4813  -7.3942  -7.1746  -6.9825  -6.8785  -6.3875  -6.3353
    -6.2715  -6.0293  -6.0012  -5.9846  -5.7717  -5.5727  -4.4252  -4.3482
    -4.3281  -4.1865

     occupation numbers 
     1.0000   1.0000   1.0000   1.0000   1.0000   1.0000   1.0000   1.0000
     1.0000   1.0000   1.0000   1.0000   1.0000   1.0000   1.0000   1.0000
     1.0000   1.0000   1.0000   1.0000   1.0000   1.0000   1.0000   1.0000
     1.0000   1.0000   1.0000   1.0000   1.0000   1.0000   1.0000   1.0000
     1.0000   1.0000   1.0000   1.0000   1.0000   1.0000   0.0000   0.0000
     0.0000   0.0000

          k = 0.0000 0.4330 0.0000 ( 52578 PWs)   bands (ev):

   -77.4066 -77.4065 -49.1407 -49.1402 -49.1316 -49.1308 -49.1291 -49.1283
   -18.2193 -17.7713 -17.5960 -17.5256 -17.4196 -17.3801 -10.0802  -9.4894
    -9.2239  -9.0504  -8.8692  -8.6366  -8.5664  -8.2834  -8.1669  -7.9668
    -7.6601  -7.4990  -7.4146  -7.1435  -6.9435  -6.8693  -6.4246  -6.3599
    -6.2738  -6.0306  -6.0097  -5.9556  -5.7920  -5.5805  -4.4141  -4.3504
    -4.2802  -4.2490

     occupation numbers 
     1.0000   1.0000   1.0000   1.0000   1.0000   1.0000   1.0000   1.0000
     1.0000   1.0000   1.0000   1.0000   1.0000   1.0000   1.0000   1.0000
     1.0000   1.0000   1.0000   1.0000   1.0000   1.0000   1.0000   1.0000
     1.0000   1.0000   1.0000   1.0000   1.0000   1.0000   1.0000   1.0000
     1.0000   1.0000   1.0000   1.0000   1.0000   1.0000   0.0000   0.0000
     0.0000   0.0000

          k = 0.0000 0.5052 0.0000 ( 52552 PWs)   bands (ev):

   -77.4066 -77.4065 -49.1406 -49.1402 -49.1316 -49.1307 -49.1292 -49.1283
   -18.1485 -17.8494 -17.5571 -17.5344 -17.4517 -17.3853 -10.0835  -9.4449
    -9.2415  -9.0032  -8.7564  -8.7142  -8.5694  -8.2539  -8.0667  -8.0324
    -7.8088  -7.6024  -7.3861  -7.0448  -6.8788  -6.8320  -6.4663  -6.4110
    -6.2863  -6.0489  -6.0059  -5.9113  -5.8056  -5.5915  -4.3968  -4.3526
    -4.3035  -4.2283

     occupation numbers 
     1.0000   1.0000   1.0000   1.0000   1.0000   1.0000   1.0000   1.0000
     1.0000   1.0000   1.0000   1.0000   1.0000   1.0000   1.0000   1.0000
     1.0000   1.0000   1.0000   1.0000   1.0000   1.0000   1.0000   1.0000
     1.0000   1.0000   1.0000   1.0000   1.0000   1.0000   1.0000   1.0000
     1.0000   1.0000   1.0000   1.0000   1.0000   1.0000   0.0000   0.0000
     0.0000   0.0000

          k = 0.0000-0.5774 0.0000 ( 52578 PWs)   bands (ev):

   -77.4066 -77.4065 -49.1406 -49.1403 -49.1316 -49.1307 -49.1293 -49.1283
   -18.1125 -17.8879 -17.5374 -17.5346 -17.4719 -17.3871 -10.0853  -9.4265
    -9.2476  -8.9768  -8.7509  -8.6891  -8.5891  -8.2344  -8.0852  -8.0173
    -7.8567  -7.6548  -7.3779  -7.0054  -6.8437  -6.8085  -6.4869  -6.4431
    -6.2898  -6.0584  -6.0037  -5.8906  -5.8104  -5.5974  -4.3818  -4.3531
    -4.3321  -4.2065

     occupation numbers 
     1.0000   1.0000   1.0000   1.0000   1.0000   1.0000   1.0000   1.0000
     1.0000   1.0000   1.0000   1.0000   1.0000   1.0000   1.0000   1.0000
     1.0000   1.0000   1.0000   1.0000   1.0000   1.0000   1.0000   1.0000
     1.0000   1.0000   1.0000   1.0000   1.0000   1.0000   1.0000   1.0000
     1.0000   1.0000   1.0000   1.0000   1.0000   1.0000   0.0000   0.0000
     0.0000   0.0000

          k = 0.0625 0.1083 0.0000 ( 52607 PWs)   bands (ev):

   -77.4067 -77.4064 -49.1409 -49.1400 -49.1314 -49.1314 -49.1286 -49.1285
   -18.4627 -17.7288 -17.4735 -17.4546 -17.3473 -17.3472 -10.1002  -9.5944
    -9.0822  -9.0636  -9.0406  -8.9709  -8.6122  -8.3008  -8.2648  -8.0913
    -7.8374  -7.7691  -7.3572  -6.8147  -6.7698  -6.5295  -6.4365  -6.3450
    -6.2090  -6.0696  -6.0087  -6.0036  -5.6605  -5.5981  -4.4419  -4.4289
    -4.1129  -4.0284

     occupation numbers 
     1.0000   1.0000   1.0000   1.0000   1.0000   1.0000   1.0000   1.0000
     1.0000   1.0000   1.0000   1.0000   1.0000   1.0000   1.0000   1.0000
     1.0000   1.0000   1.0000   1.0000   1.0000   1.0000   1.0000   1.0000
     1.0000   1.0000   1.0000   1.0000   1.0000   1.0000   1.0000   1.0000
     1.0000   1.0000   1.0000   1.0000   1.0000   1.0000   0.0000   0.0000
     0.0000   0.0000

          k = 0.0625 0.1804 0.0000 ( 52600 PWs)   bands (ev):

   -77.4067 -77.4065 -49.1409 -49.1400 -49.1315 -49.1313 -49.1287 -49.1285
   -18.4300 -17.7105 -17.5154 -17.4721 -17.3528 -17.3509 -10.0947  -9.5900
    -9.1075  -9.1032  -9.0537  -8.8715  -8.5382  -8.3482  -8.2684  -7.9442
    -7.8464  -7.6991  -7.3371  -6.8940  -6.8382  -6.5420  -6.4520  -6.4157
    -6.2319  -6.0542  -6.0042  -5.9806  -5.6971  -5.5820  -4.4412  -4.4110
    -4.2100  -4.0514

     occupation numbers 
     1.0000   1.0000   1.0000   1.0000   1.0000   1.0000   1.0000   1.0000
     1.0000   1.0000   1.0000   1.0000   1.0000   1.0000   1.0000   1.0000
     1.0000   1.0000   1.0000   1.0000   1.0000   1.0000   1.0000   1.0000
     1.0000   1.0000   1.0000   1.0000   1.0000   1.0000   1.0000   1.0000
     1.0000   1.0000   1.0000   1.0000   1.0000   1.0000   0.0000   0.0000
     0.0000   0.0000

          k = 0.0625 0.2526 0.0000 ( 52616 PWs)   bands (ev):

   -77.4066 -77.4065 -49.1408 -49.1400 -49.1315 -49.1312 -49.1288 -49.1284
   -18.3825 -17.6841 -17.5747 -17.4923 -17.3633 -17.3581 -10.0833  -9.5821
    -9.1416  -9.1188  -9.0464  -8.7530  -8.4728  -8.3937  -8.2703  -7.8820
    -7.7491  -7.6109  -7.3402  -6.9774  -6.9102  -6.7382  -6.4308  -6.3749
    -6.2467  -6.0389  -6.0123  -5.9627  -5.7316  -5.5713  -4.4410  -4.3869
    -4.2924  -4.0894

     occupation numbers 
     1.0000   1.0000   1.0000   1.0000   1.0000   1.0000   1.0000   1.0000
     1.0000   1.0000   1.0000   1.0000   1.0000   1.0000   1.0000   1.0000
     1.0000   1.0000   1.0000   1.0000   1.0000   1.0000   1.0000   1.0000
     1.0000   1.0000   1.0000   1.0000   1.0000   1.0000   1.0000   1.0000
     1.0000   1.0000   1.0000   1.0000   1.0000   1.0000   0.0000   0.0000
     0.0000   0.0000

          k = 0.0625 0.3248 0.0000 ( 52583 PWs)   bands (ev):

   -77.4066 -77.4065 -49.1408 -49.1401 -49.1316 -49.1310 -49.1289 -49.1284
   -18.3218 -17.6511 -17.6478 -17.5118 -17.3806 -17.3673 -10.0708  -9.5617
    -9.1760  -9.1115  -9.0026  -8.6456  -8.5175  -8.3542  -8.2468  -7.9085
    -7.5966  -7.5219  -7.3898  -7.0783  -6.9765  -6.8552  -6.4432  -6.3315
    -6.2515  -6.0285  -6.0200  -5.9558  -5.7606  -5.5703  -4.4377  -4.3576
    -4.3330  -4.1405

     occupation numbers 
     1.0000   1.0000   1.0000   1.0000   1.0000   1.0000   1.0000   1.0000
     1.0000   1.0000   1.0000   1.0000   1.0000   1.0000   1.0000   1.0000
     1.0000   1.0000   1.0000   1.0000   1.0000   1.0000   1.0000   1.0000
     1.0000   1.0000   1.0000   1.0000   1.0000   1.0000   1.0000   1.0000
     1.0000   1.0000   1.0000   1.0000   1.0000   1.0000   0.0000   0.0000
     0.0000   0.0000

          k = 0.0625 0.3969 0.0000 ( 52581 PWs)   bands (ev):

   -77.4066 -77.4065 -49.1407 -49.1402 -49.1316 -49.1309 -49.1291 -49.1284
   -18.2513 -17.7297 -17.6133 -17.5284 -17.4052 -17.3760 -10.0638  -9.5224
    -9.2054  -9.0833  -8.9219  -8.6038  -8.5776  -8.3205  -8.1662  -7.9450
    -7.6441  -7.4523  -7.3999  -7.1568  -6.9733  -6.8675  -6.4618  -6.3468
    -6.2526  -6.0342  -6.0010  -5.9509  -5.7839  -5.5767  -4.4252  -4.3554
    -4.3053  -4.1977

     occupation numbers 
     1.0000   1.0000   1.0000   1.0000   1.0000   1.0000   1.0000   1.0000
     1.0000   1.0000   1.0000   1.0000   1.0000   1.0000   1.0000   1.0000
     1.0000   1.0000   1.0000   1.0000   1.0000   1.0000   1.0000   1.0000
     1.0000   1.0000   1.0000   1.0000   1.0000   1.0000   1.0000   1.0000
     1.0000   1.0000   1.0000   1.0000   1.0000   1.0000   0.0000   0.0000
     0.0000   0.0000

          k = 0.0625 0.4691 0.0000 ( 52532 PWs)   bands (ev):

   -77.4066 -77.4065 -49.1406 -49.1402 -49.1316 -49.1307 -49.1292 -49.1283
   -18.1771 -17.8125 -17.5737 -17.5403 -17.4355 -17.3828 -10.0631  -9.4734
    -9.2270  -9.0385  -8.8148  -8.6907  -8.5622  -8.2904  -8.0971  -7.9708
    -7.7961  -7.4899  -7.4022  -7.0942  -6.9143  -6.8362  -6.4906  -6.4007
    -6.2670  -6.0398  -5.9925  -5.9189  -5.8011  -5.5878  -4.4040  -4.3589
    -4.2755  -4.2319

     occupation numbers 
     1.0000   1.0000   1.0000   1.0000   1.0000   1.0000   1.0000   1.0000
     1.0000   1.0000   1.0000   1.0000   1.0000   1.0000   1.0000   1.0000
     1.0000   1.0000   1.0000   1.0000   1.0000   1.0000   1.0000   1.0000
     1.0000   1.0000   1.0000   1.0000   1.0000   1.0000   1.0000   1.0000
     1.0000   1.0000   1.0000   1.0000   1.0000   1.0000   0.0000   0.0000
     0.0000   0.0000

          k = 0.0625 0.5413 0.0000 ( 52565 PWs)   bands (ev):

   -77.4066 -77.4065 -49.1406 -49.1403 -49.1316 -49.1306 -49.1293 -49.1283
   -18.1172 -17.8770 -17.5465 -17.5394 -17.4650 -17.3865 -10.0646  -9.4384
    -9.2383  -8.9949  -8.7586  -8.7092  -8.5819  -8.2588  -8.1543  -7.9163
    -7.8722  -7.5883  -7.3849  -7.0333  -6.8450  -6.8043  -6.5206  -6.4536
    -6.2775  -6.0495  -5.9909  -5.8842  -5.8106  -5.5983  -4.3780  -4.3602
    -4.3126  -4.2035

     occupation numbers 
     1.0000   1.0000   1.0000   1.0000   1.0000   1.0000   1.0000   1.0000
     1.0000   1.0000   1.0000   1.0000   1.0000   1.0000   1.0000   1.0000
     1.0000   1.0000   1.0000   1.0000   1.0000   1.0000   1.0000   1.0000
     1.0000   1.0000   1.0000   1.0000   1.0000   1.0000   1.0000   1.0000
     1.0000   1.0000   1.0000   1.0000   1.0000   1.0000   0.0000   0.0000
     0.0000   0.0000

          k = 0.1250 0.2165 0.0000 ( 52635 PWs)   bands (ev):

   -77.4066 -77.4065 -49.1408 -49.1400 -49.1315 -49.1312 -49.1288 -49.1284
   -18.3903 -17.6884 -17.5605 -17.4952 -17.3616 -17.3555 -10.0800  -9.5884
    -9.1320  -9.1318  -9.0464  -8.7665  -8.4655  -8.4113  -8.2567  -7.8806
    -7.7738  -7.6288  -7.3460  -6.9759  -6.8850  -6.6533  -6.5047  -6.3857
    -6.2253  -6.0357  -6.0208  -5.9552  -5.7252  -5.5713  -4.4472  -4.3877
    -4.2913  -4.0693

     occupation numbers 
     1.0000   1.0000   1.0000   1.0000   1.0000   1.0000   1.0000   1.0000
     1.0000   1.0000   1.0000   1.0000   1.0000   1.0000   1.0000   1.0000
     1.0000   1.0000   1.0000   1.0000   1.0000   1.0000   1.0000   1.0000
     1.0000   1.0000   1.0000   1.0000   1.0000   1.0000   1.0000   1.0000
     1.0000   1.0000   1.0000   1.0000   1.0000   1.0000   0.0000   0.0000
     0.0000   0.0000

          k = 0.1250 0.2887 0.0000 ( 52604 PWs)   bands (ev):

   -77.4066 -77.4065 -49.1408 -49.1401 -49.1316 -49.1310 -49.1289 -49.1284
   -18.3365 -17.6592 -17.6210 -17.5200 -17.3754 -17.3629 -10.0560  -9.5835
    -9.1558  -9.1393  -9.0201  -8.6616  -8.4930  -8.3947  -8.2160  -7.9014
    -7.6299  -7.5539  -7.4085  -7.0357  -6.9256  -6.7900  -6.5454  -6.3414
    -6.2238  -6.0427  -6.0125  -5.9338  -5.7526  -5.5680  -4.4540  -4.3582
    -4.3401  -4.0984

     occupation numbers 
     1.0000   1.0000   1.0000   1.0000   1.0000   1.0000   1.0000   1.0000
     1.0000   1.0000   1.0000   1.0000   1.0000   1.0000   1.0000   1.0000
     1.0000   1.0000   1.0000   1.0000   1.0000   1.0000   1.0000   1.0000
     1.0000   1.0000   1.0000   1.0000   1.0000   1.0000   1.0000   1.0000
     1.0000   1.0000   1.0000   1.0000   1.0000   1.0000   0.0000   0.0000
     0.0000   0.0000

          k = 0.1250 0.3608 0.0000 ( 52572 PWs)   bands (ev):

   -77.4066 -77.4065 -49.1407 -49.1401 -49.1316 -49.1309 -49.1291 -49.1284
   -18.2711 -17.6942 -17.6243 -17.5420 -17.3948 -17.3722 -10.0308  -9.5633
    -9.1791  -9.1244  -8.9613  -8.5897  -8.5827  -8.3547  -8.1224  -7.9366
    -7.6647  -7.4876  -7.3865  -7.0618  -6.9787  -6.8534  -6.5606  -6.3498
    -6.2277  -6.0481  -5.9841  -5.9223  -5.7776  -5.5738  -4.4446  -4.3614
    -4.3179  -4.1383

     occupation numbers 
     1.0000   1.0000   1.0000   1.0000   1.0000   1.0000   1.0000   1.0000
     1.0000   1.0000   1.0000   1.0000   1.0000   1.0000   1.0000   1.0000
     1.0000   1.0000   1.0000   1.0000   1.0000   1.0000   1.0000   1.0000
     1.0000   1.0000   1.0000   1.0000   1.0000   1.0000   1.0000   1.0000
     1.0000   1.0000   1.0000   1.0000   1.0000   1.0000   0.0000   0.0000
     0.0000   0.0000

          k = 0.1250 0.4330 0.0000 ( 52581 PWs)   bands (ev):

   -77.4066 -77.4065 -49.1406 -49.1402 -49.1316 -49.1307 -49.1292 -49.1283
   -18.1983 -17.7744 -17.5860 -17.5590 -17.4205 -17.3805 -10.0139  -9.5223
    -9.1993  -9.0894  -8.8716  -8.6809  -8.5603  -8.3265  -8.0671  -7.9385
    -7.8138  -7.4380  -7.3438  -7.1069  -6.9498  -6.8327  -6.5718  -6.4108
    -6.2399  -6.0405  -5.9574  -5.9068  -5.7972  -5.5862  -4.4148  -4.3679
    -4.2783  -4.1785

     occupation numbers 
     1.0000   1.0000   1.0000   1.0000   1.0000   1.0000   1.0000   1.0000
     1.0000   1.0000   1.0000   1.0000   1.0000   1.0000   1.0000   1.0000
     1.0000   1.0000   1.0000   1.0000   1.0000   1.0000   1.0000   1.0000
     1.0000   1.0000   1.0000   1.0000   1.0000   1.0000   1.0000   1.0000
     1.0000   1.0000   1.0000   1.0000   1.0000   1.0000   0.0000   0.0000
     0.0000   0.0000

          k = 0.1250 0.5052 0.0000 ( 52542 PWs)   bands (ev):

   -77.4066 -77.4065 -49.1406 -49.1403 -49.1317 -49.1306 -49.1294 -49.1283
   -18.1275 -17.8503 -17.5696 -17.5484 -17.4502 -17.3861 -10.0070  -9.4763
    -9.2129  -9.0426  -8.7823  -8.7496  -8.5713  -8.3031  -8.1802  -7.8907
    -7.8232  -7.4444  -7.3918  -7.0898  -6.8631  -6.7948  -6.5951  -6.4793
    -6.2551  -6.0382  -5.9541  -5.8688  -5.8102  -5.6010  -4.3757  -4.3705
    -4.2776  -4.1842

     occupation numbers 
     1.0000   1.0000   1.0000   1.0000   1.0000   1.0000   1.0000   1.0000
     1.0000   1.0000   1.0000   1.0000   1.0000   1.0000   1.0000   1.0000
     1.0000   1.0000   1.0000   1.0000   1.0000   1.0000   1.0000   1.0000
     1.0000   1.0000   1.0000   1.0000   1.0000   1.0000   1.0000   1.0000
     1.0000   1.0000   1.0000   1.0000   1.0000   1.0000   0.0000   0.0000
     0.0000   0.0000

          k = 0.1250 0.5774 0.0000 ( 52536 PWs)   bands (ev):

   -77.4066 -77.4065 -49.1406 -49.1403 -49.1317 -49.1305 -49.1294 -49.1283
   -18.0907 -17.8890 -17.5732 -17.5265 -17.4694 -17.3881 -10.0055  -9.4555
    -9.2177  -9.0141  -8.8167  -8.6852  -8.5967  -8.2983  -8.2482  -7.9095
    -7.7481  -7.5099  -7.3874  -7.0732  -6.8090  -6.7818  -6.6162  -6.5079
    -6.2618  -6.0394  -5.9552  -5.8490  -5.8149  -5.6086  -4.3714  -4.3462
    -4.3033  -4.1729

     occupation numbers 
     1.0000   1.0000   1.0000   1.0000   1.0000   1.0000   1.0000   1.0000
     1.0000   1.0000   1.0000   1.0000   1.0000   1.0000   1.0000   1.0000
     1.0000   1.0000   1.0000   1.0000   1.0000   1.0000   1.0000   1.0000
     1.0000   1.0000   1.0000   1.0000   1.0000   1.0000   1.0000   1.0000
     1.0000   1.0000   1.0000   1.0000   1.0000   1.0000   0.0000   0.0000
     0.0000   0.0000

          k = 0.1875 0.3248 0.0000 ( 52565 PWs)   bands (ev):

   -77.4066 -77.4065 -49.1407 -49.1401 -49.1316 -49.1309 -49.1291 -49.1283
   -18.2779 -17.6786 -17.6280 -17.5507 -17.3909 -17.3707 -10.0127  -9.5841
    -9.1552  -9.1529  -8.9771  -8.5913  -8.5782  -8.3655  -8.0987  -7.9379
    -7.6735  -7.5043  -7.3963  -7.0337  -6.9309  -6.8446  -6.6285  -6.3535
    -6.2186  -6.0543  -5.9752  -5.9098  -5.7752  -5.5724  -4.4547  -4.3629
    -4.3219  -4.1126

     occupation numbers 
     1.0000   1.0000   1.0000   1.0000   1.0000   1.0000   1.0000   1.0000
     1.0000   1.0000   1.0000   1.0000   1.0000   1.0000   1.0000   1.0000
     1.0000   1.0000   1.0000   1.0000   1.0000   1.0000   1.0000   1.0000
     1.0000   1.0000   1.0000   1.0000   1.0000   1.0000   1.0000   1.0000
     1.0000   1.0000   1.0000   1.0000   1.0000   1.0000   0.0000   0.0000
     0.0000   0.0000

          k = 0.1875 0.3969 0.0000 ( 52546 PWs)   bands (ev):

   -77.4066 -77.4065 -49.1407 -49.1402 -49.1316 -49.1307 -49.1292 -49.1283
   -18.2094 -17.7471 -17.5926 -17.5771 -17.4108 -17.3801  -9.9655  -9.5707
    -9.1674  -9.1335  -8.9081  -8.6780  -8.5606  -8.3398  -8.0303  -7.9344
    -7.8232  -7.4607  -7.3087  -7.0065  -6.9680  -6.8697  -6.6465  -6.4219
    -6.2249  -6.0441  -5.9293  -5.8947  -5.7947  -5.5855  -4.4263  -4.3717
    -4.2842  -4.1323

     occupation numbers 
     1.0000   1.0000   1.0000   1.0000   1.0000   1.0000   1.0000   1.0000
     1.0000   1.0000   1.0000   1.0000   1.0000   1.0000   1.0000   1.0000
     1.0000   1.0000   1.0000   1.0000   1.0000   1.0000   1.0000   1.0000
     1.0000   1.0000   1.0000   1.0000   1.0000   1.0000   1.0000   1.0000
     1.0000   1.0000   1.0000   1.0000   1.0000   1.0000   0.0000   0.0000
     0.0000   0.0000

          k = 0.1875 0.4691 0.0000 ( 52547 PWs)   bands (ev):

   -77.4066 -77.4065 -49.1406 -49.1403 -49.1317 -49.1305 -49.1294 -49.1283
   -18.1365 -17.8212 -17.5956 -17.5555 -17.4357 -17.3881  -9.9310  -9.5363
    -9.1792  -9.0966  -8.8231  -8.7712  -8.5648  -8.3170  -8.1903  -7.8957
    -7.7690  -7.4223  -7.2920  -7.0992  -6.8847  -6.8415  -6.6461  -6.5071
    -6.2380  -6.0335  -5.9104  -5.8610  -5.8058  -5.6042  -4.3836  -4.3727
    -4.2621  -4.1431

     occupation numbers 
     1.0000   1.0000   1.0000   1.0000   1.0000   1.0000   1.0000   1.0000
     1.0000   1.0000   1.0000   1.0000   1.0000   1.0000   1.0000   1.0000
     1.0000   1.0000   1.0000   1.0000   1.0000   1.0000   1.0000   1.0000
     1.0000   1.0000   1.0000   1.0000   1.0000   1.0000   1.0000   1.0000
     1.0000   1.0000   1.0000   1.0000   1.0000   1.0000   0.0000   0.0000
     0.0000   0.0000

          k = 0.1875 0.5413 0.0000 ( 52536 PWs)   bands (ev):

   -77.4066 -77.4065 -49.1405 -49.1403 -49.1317 -49.1304 -49.1295 -49.1283
   -18.0751 -17.8837 -17.6050 -17.5232 -17.4616 -17.3925  -9.9155  -9.5016
    -9.1862  -9.0557  -8.8682  -8.7038  -8.5940  -8.3511  -8.2803  -7.9208
    -7.6263  -7.4194  -7.3427  -7.1355  -6.8300  -6.7828  -6.6774  -6.5546
    -6.2491  -6.0295  -5.9126  -5.8327  -5.8015  -5.6212  -4.3804  -4.3323
    -4.2766  -4.1347

     occupation numbers 
     1.0000   1.0000   1.0000   1.0000   1.0000   1.0000   1.0000   1.0000
     1.0000   1.0000   1.0000   1.0000   1.0000   1.0000   1.0000   1.0000
     1.0000   1.0000   1.0000   1.0000   1.0000   1.0000   1.0000   1.0000
     1.0000   1.0000   1.0000   1.0000   1.0000   1.0000   1.0000   1.0000
     1.0000   1.0000   1.0000   1.0000   1.0000   1.0000   0.0000   0.0000
     0.0000   0.0000

          k = 0.2500 0.4330 0.0000 ( 52526 PWs)   bands (ev):

   -77.4066 -77.4065 -49.1406 -49.1403 -49.1317 -49.1305 -49.1294 -49.1283
   -18.1400 -17.8078 -17.6079 -17.5581 -17.4292 -17.3899  -9.8881  -9.5743
    -9.1535  -9.1286  -8.8432  -8.7768  -8.5625  -8.3170  -8.1947  -7.8951
    -7.7507  -7.4259  -7.2692  -7.0012  -6.9500  -6.8914  -6.6514  -6.5202
    -6.2318  -6.0324  -5.8809  -5.8715  -5.8012  -5.6058  -4.3880  -4.3729
    -4.2596  -4.1215

     occupation numbers 
     1.0000   1.0000   1.0000   1.0000   1.0000   1.0000   1.0000   1.0000
     1.0000   1.0000   1.0000   1.0000   1.0000   1.0000   1.0000   1.0000
     1.0000   1.0000   1.0000   1.0000   1.0000   1.0000   1.0000   1.0000
     1.0000   1.0000   1.0000   1.0000   1.0000   1.0000   1.0000   1.0000
     1.0000   1.0000   1.0000   1.0000   1.0000   1.0000   0.0000   0.0000
     0.0000   0.0000

          k = 0.2500 0.5052 0.0000 ( 52521 PWs)   bands (ev):

   -77.4066 -77.4065 -49.1405 -49.1403 -49.1317 -49.1303 -49.1296 -49.1282
   -18.0695 -17.8726 -17.6281 -17.5243 -17.4511 -17.3979  -9.8253  -9.5656
    -9.1588  -9.0930  -8.8966  -8.7339  -8.5818  -8.3702  -8.2963  -7.9224
    -7.5717  -7.3841  -7.2724  -7.1179  -6.9504  -6.8020  -6.6480  -6.5955
    -6.2413  -6.0242  -5.8782  -5.8431  -5.7771  -5.6318  -4.3857  -4.3307
    -4.2586  -4.1025

     occupation numbers 
     1.0000   1.0000   1.0000   1.0000   1.0000   1.0000   1.0000   1.0000
     1.0000   1.0000   1.0000   1.0000   1.0000   1.0000   1.0000   1.0000
     1.0000   1.0000   1.0000   1.0000   1.0000   1.0000   1.0000   1.0000
     1.0000   1.0000   1.0000   1.0000   1.0000   1.0000   1.0000   1.0000
     1.0000   1.0000   1.0000   1.0000   1.0000   1.0000   0.0000   0.0000
     0.0000   0.0000

          k = 0.2500 0.5774 0.0000 ( 52520 PWs)   bands (ev):

   -77.4066 -77.4065 -49.1405 -49.1404 -49.1317 -49.1302 -49.1297 -49.1282
   -18.0273 -17.9129 -17.6350 -17.5033 -17.4678 -17.4009  -9.8022  -9.5565
    -9.1628  -9.0651  -8.9497  -8.6560  -8.6159  -8.4544  -8.2893  -7.9308
    -7.4570  -7.3957  -7.2526  -7.2122  -6.9439  -6.7497  -6.6841  -6.6032
    -6.2458  -6.0215  -5.8792  -5.8389  -5.7542  -5.6480  -4.3872  -4.3004
    -4.2724  -4.0916

     occupation numbers 
     1.0000   1.0000   1.0000   1.0000   1.0000   1.0000   1.0000   1.0000
     1.0000   1.0000   1.0000   1.0000   1.0000   1.0000   1.0000   1.0000
     1.0000   1.0000   1.0000   1.0000   1.0000   1.0000   1.0000   1.0000
     1.0000   1.0000   1.0000   1.0000   1.0000   1.0000   1.0000   1.0000
     1.0000   1.0000   1.0000   1.0000   1.0000   1.0000   0.0000   0.0000
     0.0000   0.0000

          k = 0.3125 0.5413 0.0000 ( 52528 PWs)   bands (ev):

   -77.4066 -77.4065 -49.1405 -49.1404 -49.1317 -49.1301 -49.1298 -49.1282
   -18.0030 -17.9292 -17.6470 -17.4958 -17.4690 -17.4054  -9.7206  -9.6146
    -9.1582  -9.0595  -8.9864  -8.6509  -8.5994  -8.5064  -8.2894  -7.9336
    -7.4066  -7.3170  -7.3076  -7.1399  -7.0662  -6.7502  -6.6519  -6.6352
    -6.2444  -6.0185  -5.8612  -5.8484  -5.7248  -5.6682  -4.3898  -4.2926
    -4.2672  -4.0733

     occupation numbers 
     1.0000   1.0000   1.0000   1.0000   1.0000   1.0000   1.0000   1.0000
     1.0000   1.0000   1.0000   1.0000   1.0000   1.0000   1.0000   1.0000
     1.0000   1.0000   1.0000   1.0000   1.0000   1.0000   1.0000   1.0000
     1.0000   1.0000   1.0000   1.0000   1.0000   1.0000   1.0000   1.0000
     1.0000   1.0000   1.0000   1.0000   1.0000   1.0000   0.0000   0.0000
     0.0000   0.0000

 ------ SPIN DOWN ----------


          k = 0.0000 0.0000 0.0000 ( 52593 PWs)   bands (ev):

   -74.4676 -74.4673 -46.2203 -46.2189 -46.1904 -46.1904 -46.1866 -46.1866
   -18.4713 -17.7632 -17.4557 -17.4557 -17.3621 -17.3621  -9.8467  -9.3827
    -8.8941  -8.8941  -8.7450  -8.7450  -8.6105  -8.0358  -7.6350  -7.6350
    -7.3458  -7.3458  -7.3457  -6.6625  -6.3116  -6.3116  -5.7745  -5.7745
    -3.7958  -3.7865  -3.7865  -3.7093  -3.4517  -3.4517  -2.9129  -2.9129
    -2.6412  -2.6412

     occupation numbers 
     1.0000   1.0000   1.0000   1.0000   1.0000   1.0000   1.0000   1.0000
     1.0000   1.0000   1.0000   1.0000   1.0000   1.0000   1.0000   1.0000
     1.0000   1.0000   1.0000   1.0000   1.0000   1.0000   1.0000   1.0000
     1.0000   1.0000   1.0000   1.0000   1.0000   1.0000   1.0000   1.0000
     0.0000   0.0000   0.0000   0.0000   0.0000   0.0000   0.0000   0.0000
     0.0000   0.0000

          k = 0.0000 0.0722 0.0000 ( 52616 PWs)   bands (ev):

   -74.4676 -74.4673 -46.2203 -46.2190 -46.1904 -46.1904 -46.1867 -46.1866
   -18.4631 -17.7585 -17.4674 -17.4609 -17.3627 -17.3623  -9.8495  -9.3810
    -8.9022  -8.8609  -8.8204  -8.7629  -8.5121  -7.9811  -7.6570  -7.6420
    -7.3511  -7.3384  -7.3241  -6.6654  -6.3220  -6.3100  -5.8494  -5.7935
    -3.8253  -3.7744  -3.7410  -3.7006  -3.4579  -3.4550  -2.9143  -2.9112
    -2.6682  -2.6461

     occupation numbers 
     1.0000   1.0000   1.0000   1.0000   1.0000   1.0000   1.0000   1.0000
     1.0000   1.0000   1.0000   1.0000   1.0000   1.0000   1.0000   1.0000
     1.0000   1.0000   1.0000   1.0000   1.0000   1.0000   1.0000   1.0000
     1.0000   1.0000   1.0000   1.0000   1.0000   1.0000   1.0000   1.0000
     0.0000   0.0000   0.0000   0.0000   0.0000   0.0000   0.0000   0.0000
     0.0000   0.0000

          k = 0.0000 0.1443 0.0000 ( 52628 PWs)   bands (ev):

   -74.4676 -74.4673 -46.2202 -46.2190 -46.1904 -46.1903 -46.1867 -46.1866
   -18.4389 -17.7444 -17.5006 -17.4745 -17.3655 -17.3646  -9.8544  -9.3766
    -8.9232  -8.9126  -8.7996  -8.7644  -8.3520  -7.8392  -7.7190  -7.6627
    -7.3661  -7.3220  -7.2651  -6.6711  -6.3537  -6.3067  -6.0496  -5.8456
    -3.8454  -3.7411  -3.7170  -3.6501  -3.4721  -3.4650  -2.9186  -2.9094
    -2.7291  -2.6600

     occupation numbers 
     1.0000   1.0000   1.0000   1.0000   1.0000   1.0000   1.0000   1.0000
     1.0000   1.0000   1.0000   1.0000   1.0000   1.0000   1.0000   1.0000
     1.0000   1.0000   1.0000   1.0000   1.0000   1.0000   1.0000   1.0000
     1.0000   1.0000   1.0000   1.0000   1.0000   1.0000   1.0000   1.0000
     0.0000   0.0000   0.0000   0.0000   0.0000   0.0000   0.0000   0.0000
     0.0000   0.0000

          k = 0.0000 0.2165 0.0000 ( 52614 PWs)   bands (ev):

   -74.4676 -74.4673 -46.2202 -46.2190 -46.1905 -46.1902 -46.1869 -46.1865
   -18.3993 -17.7217 -17.5519 -17.4927 -17.3718 -17.3711  -9.8562  -9.3690
    -8.9926  -8.9347  -8.8085  -8.6372  -8.1773  -7.8146  -7.6992  -7.6420
    -7.3883  -7.3066  -7.1830  -6.6756  -6.4370  -6.3031  -6.2935  -5.9171
    -3.8608  -3.7268  -3.6955  -3.5830  -3.4812  -3.4808  -2.9260  -2.9155
    -2.7812  -2.6809

     occupation numbers 
     1.0000   1.0000   1.0000   1.0000   1.0000   1.0000   1.0000   1.0000
     1.0000   1.0000   1.0000   1.0000   1.0000   1.0000   1.0000   1.0000
     1.0000   1.0000   1.0000   1.0000   1.0000   1.0000   1.0000   1.0000
     1.0000   1.0000   1.0000   1.0000   1.0000   1.0000   1.0000   1.0000
     0.0000   0.0000   0.0000   0.0000   0.0000   0.0000   0.0000   0.0000
     0.0000   0.0000

          k = 0.0000 0.2887 0.0000 ( 52560 PWs)   bands (ev):

   -74.4675 -74.4673 -46.2201 -46.2191 -46.1906 -46.1900 -46.1870 -46.1865
   -18.3459 -17.6914 -17.6180 -17.5118 -17.3861 -17.3790  -9.8550  -9.3521
    -9.0534  -8.9291  -8.7819  -8.4956  -8.0027  -7.9349  -7.7360  -7.4281
    -7.4126  -7.2990  -7.0930  -6.7080  -6.6873  -6.3952  -6.2960  -5.9879
    -3.8772  -3.7646  -3.6528  -3.5372  -3.4996  -3.4656  -2.9374  -2.9252
    -2.8009  -2.7040

     occupation numbers 
     1.0000   1.0000   1.0000   1.0000   1.0000   1.0000   1.0000   1.0000
     1.0000   1.0000   1.0000   1.0000   1.0000   1.0000   1.0000   1.0000
     1.0000   1.0000   1.0000   1.0000   1.0000   1.0000   1.0000   1.0000
     1.0000   1.0000   1.0000   1.0000   1.0000   1.0000   1.0000   1.0000
     0.0000   0.0000   0.0000   0.0000   0.0000   0.0000   0.0000   0.0000
     0.0000   0.0000

          k = 0.0000 0.3608 0.0000 ( 52574 PWs)   bands (ev):

   -74.4675 -74.4674 -46.2200 -46.2192 -46.1906 -46.1898 -46.1872 -46.1864
   -18.2810 -17.6951 -17.6553 -17.5293 -17.4082 -17.3874  -9.8555  -9.3182
    -9.1018  -8.8917  -8.7168  -8.3687  -8.0885  -7.8216  -7.7676  -7.4476
    -7.3000  -7.2036  -7.0347  -7.0096  -6.7214  -6.4454  -6.2867  -6.0337
    -3.8971  -3.8243  -3.6300  -3.5158  -3.5112  -3.4308  -2.9524  -2.9157
    -2.7994  -2.7239

     occupation numbers 
     1.0000   1.0000   1.0000   1.0000   1.0000   1.0000   1.0000   1.0000
     1.0000   1.0000   1.0000   1.0000   1.0000   1.0000   1.0000   1.0000
     1.0000   1.0000   1.0000   1.0000   1.0000   1.0000   1.0000   1.0000
     1.0000   1.0000   1.0000   1.0000   1.0000   1.0000   1.0000   1.0000
     0.0000   0.0000   0.0000   0.0000   0.0000   0.0000   0.0000   0.0000
     0.0000   0.0000

          k = 0.0000 0.4330 0.0000 ( 52578 PWs)   bands (ev):

   -74.4675 -74.4674 -46.2200 -46.2193 -46.1906 -46.1896 -46.1874 -46.1864
   -18.2087 -17.7773 -17.6156 -17.5431 -17.4369 -17.3948  -9.8598  -9.2701
    -9.1379  -8.8196  -8.6241  -8.2758  -8.2470  -7.7793  -7.6621  -7.4956
    -7.3281  -7.3056  -7.0007  -6.9607  -6.7606  -6.4893  -6.2964  -6.0356
    -3.9190  -3.8896  -3.6294  -3.5134  -3.5028  -3.4004  -2.9682  -2.8885
    -2.7850  -2.7375

     occupation numbers 
     1.0000   1.0000   1.0000   1.0000   1.0000   1.0000   1.0000   1.0000
     1.0000   1.0000   1.0000   1.0000   1.0000   1.0000   1.0000   1.0000
     1.0000   1.0000   1.0000   1.0000   1.0000   1.0000   1.0000   1.0000
     1.0000   1.0000   1.0000   1.0000   1.0000   1.0000   1.0000   1.0000
     0.0000   0.0000   0.0000   0.0000   0.0000   0.0000   0.0000   0.0000
     0.0000   0.0000

          k = 0.0000 0.5052 0.0000 ( 52552 PWs)   bands (ev):

   -74.4675 -74.4674 -46.2199 -46.2194 -46.1907 -46.1895 -46.1876 -46.1864
   -18.1390 -17.8536 -17.5767 -17.5519 -17.4691 -17.3998  -9.8651  -9.2254
    -9.1603  -8.7176  -8.5336  -8.4047  -8.2048  -7.7987  -7.6196  -7.5346
    -7.4583  -7.3111  -6.9835  -6.8480  -6.7542  -6.5297  -6.3252  -6.0116
    -3.9454  -3.9326  -3.6359  -3.5135  -3.4944  -3.3822  -2.9800  -2.8680
    -2.7599  -2.7448

     occupation numbers 
     1.0000   1.0000   1.0000   1.0000   1.0000   1.0000   1.0000   1.0000
     1.0000   1.0000   1.0000   1.0000   1.0000   1.0000   1.0000   1.0000
     1.0000   1.0000   1.0000   1.0000   1.0000   1.0000   1.0000   1.0000
     1.0000   1.0000   1.0000   1.0000   1.0000   1.0000   1.0000   1.0000
     0.0000   0.0000   0.0000   0.0000   0.0000   0.0000   0.0000   0.0000
     0.0000   0.0000

          k = 0.0000-0.5774 0.0000 ( 52578 PWs)   bands (ev):

   -74.4675 -74.4674 -46.2198 -46.2194 -46.1907 -46.1894 -46.1876 -46.1863
   -18.1033 -17.8917 -17.5551 -17.5543 -17.4890 -17.4016  -9.8674  -9.2070
    -9.1679  -8.6302  -8.5114  -8.4955  -8.1546  -7.8594  -7.6660  -7.4802
    -7.4795  -7.3133  -7.0123  -6.7848  -6.7390  -6.5518  -6.3411  -5.9989
    -3.9641  -3.9408  -3.6390  -3.5137  -3.4914  -3.3764  -2.9843  -2.8621
    -2.7471  -2.7460

     occupation numbers 
     1.0000   1.0000   1.0000   1.0000   1.0000   1.0000   1.0000   1.0000
     1.0000   1.0000   1.0000   1.0000   1.0000   1.0000   1.0000   1.0000
     1.0000   1.0000   1.0000   1.0000   1.0000   1.0000   1.0000   1.0000
     1.0000   1.0000   1.0000   1.0000   1.0000   1.0000   1.0000   1.0000
     0.0000   0.0000   0.0000   0.0000   0.0000   0.0000   0.0000   0.0000
     0.0000   0.0000

          k = 0.0625 0.1083 0.0000 ( 52607 PWs)   bands (ev):

   -74.4676 -74.4673 -46.2203 -46.2190 -46.1904 -46.1903 -46.1867 -46.1866
   -18.4469 -17.7490 -17.4889 -17.4712 -17.3640 -17.3639  -9.8530  -9.3782
    -8.9177  -8.8903  -8.7971  -8.7873  -8.3967  -7.8837  -7.6995  -7.6549
    -7.3655  -7.3213  -7.2854  -6.6701  -6.3405  -6.3097  -5.9852  -5.8301
    -3.8362  -3.7696  -3.6915  -3.6822  -3.4684  -3.4612  -2.9199  -2.9067
    -2.7123  -2.6547

     occupation numbers 
     1.0000   1.0000   1.0000   1.0000   1.0000   1.0000   1.0000   1.0000
     1.0000   1.0000   1.0000   1.0000   1.0000   1.0000   1.0000   1.0000
     1.0000   1.0000   1.0000   1.0000   1.0000   1.0000   1.0000   1.0000
     1.0000   1.0000   1.0000   1.0000   1.0000   1.0000   1.0000   1.0000
     0.0000   0.0000   0.0000   0.0000   0.0000   0.0000   0.0000   0.0000
     0.0000   0.0000

          k = 0.0625 0.1804 0.0000 ( 52600 PWs)   bands (ev):

   -74.4676 -74.4673 -46.2202 -46.2190 -46.1905 -46.1902 -46.1868 -46.1866
   -18.4150 -17.7306 -17.5294 -17.4890 -17.3695 -17.3673  -9.8542  -9.3739
    -8.9631  -8.9390  -8.8081  -8.6833  -8.2388  -7.7815  -7.7173  -7.6785
    -7.3922  -7.2971  -7.2175  -6.6794  -6.3797  -6.3169  -6.2047  -5.8952
    -3.8451  -3.7637  -3.6670  -3.6189  -3.4806  -3.4729  -2.9344  -2.9005
    -2.7672  -2.6707

     occupation numbers 
     1.0000   1.0000   1.0000   1.0000   1.0000   1.0000   1.0000   1.0000
     1.0000   1.0000   1.0000   1.0000   1.0000   1.0000   1.0000   1.0000
     1.0000   1.0000   1.0000   1.0000   1.0000   1.0000   1.0000   1.0000
     1.0000   1.0000   1.0000   1.0000   1.0000   1.0000   1.0000   1.0000
     0.0000   0.0000   0.0000   0.0000   0.0000   0.0000   0.0000   0.0000
     0.0000   0.0000

          k = 0.0625 0.2526 0.0000 ( 52616 PWs)   bands (ev):

   -74.4676 -74.4673 -46.2202 -46.2191 -46.1905 -46.1901 -46.1870 -46.1865
   -18.3685 -17.7042 -17.5866 -17.5093 -17.3801 -17.3741  -9.8500  -9.3654
    -9.0231  -8.9481  -8.8000  -8.5447  -8.0667  -7.8908  -7.7131  -7.5145
    -7.4247  -7.2783  -7.1362  -6.7216  -6.5242  -6.3781  -6.2974  -5.9711
    -3.8591  -3.7670  -3.6525  -3.5621  -3.4867  -3.4773  -2.9551  -2.8975
    -2.7983  -2.6918

     occupation numbers 
     1.0000   1.0000   1.0000   1.0000   1.0000   1.0000   1.0000   1.0000
     1.0000   1.0000   1.0000   1.0000   1.0000   1.0000   1.0000   1.0000
     1.0000   1.0000   1.0000   1.0000   1.0000   1.0000   1.0000   1.0000
     1.0000   1.0000   1.0000   1.0000   1.0000   1.0000   1.0000   1.0000
     0.0000   0.0000   0.0000   0.0000   0.0000   0.0000   0.0000   0.0000
     0.0000   0.0000

          k = 0.0625 0.3248 0.0000 ( 52583 PWs)   bands (ev):

   -74.4675 -74.4673 -46.2201 -46.2192 -46.1906 -46.1899 -46.1872 -46.1864
   -18.3092 -17.6710 -17.6573 -17.5290 -17.3976 -17.3827  -9.8440  -9.3437
    -9.0725  -8.9294  -8.7540  -8.4096  -8.0308  -7.8886  -7.7457  -7.4603
    -7.2974  -7.2701  -7.0707  -6.9147  -6.6477  -6.4239  -6.2935  -6.0343
    -3.8791  -3.8026  -3.6364  -3.5431  -3.4889  -3.4497  -2.9666  -2.8953
    -2.8039  -2.7133

     occupation numbers 
     1.0000   1.0000   1.0000   1.0000   1.0000   1.0000   1.0000   1.0000
     1.0000   1.0000   1.0000   1.0000   1.0000   1.0000   1.0000   1.0000
     1.0000   1.0000   1.0000   1.0000   1.0000   1.0000   1.0000   1.0000
     1.0000   1.0000   1.0000   1.0000   1.0000   1.0000   1.0000   1.0000
     0.0000   0.0000   0.0000   0.0000   0.0000   0.0000   0.0000   0.0000
     0.0000   0.0000

          k = 0.0625 0.3969 0.0000 ( 52581 PWs)   bands (ev):

   -74.4675 -74.4674 -46.2200 -46.2193 -46.1906 -46.1897 -46.1874 -46.1864
   -18.2401 -17.7366 -17.6330 -17.5456 -17.4224 -17.3911  -9.8417  -9.3033
    -9.1119  -8.8764  -8.6740  -8.3044  -8.1849  -7.7710  -7.7148  -7.4984
    -7.2775  -7.2473  -7.0877  -6.9509  -6.7169  -6.4647  -6.2896  -6.0590
    -3.9028  -3.8601  -3.6289  -3.5467  -3.4796  -3.4160  -2.9665  -2.8849
    -2.7947  -2.7306

     occupation numbers 
     1.0000   1.0000   1.0000   1.0000   1.0000   1.0000   1.0000   1.0000
     1.0000   1.0000   1.0000   1.0000   1.0000   1.0000   1.0000   1.0000
     1.0000   1.0000   1.0000   1.0000   1.0000   1.0000   1.0000   1.0000
     1.0000   1.0000   1.0000   1.0000   1.0000   1.0000   1.0000   1.0000
     0.0000   0.0000   0.0000   0.0000   0.0000   0.0000   0.0000   0.0000
     0.0000   0.0000

          k = 0.0625 0.4691 0.0000 ( 52532 PWs)   bands (ev):

   -74.4675 -74.4674 -46.2199 -46.2193 -46.1907 -46.1895 -46.1875 -46.1864
   -18.1673 -17.8173 -17.5932 -17.5575 -17.4529 -17.3976  -9.8439  -9.2540
    -9.1396  -8.7901  -8.5766  -8.3463  -8.2355  -7.7793  -7.6030  -7.5447
    -7.4511  -7.2812  -6.9396  -6.9061  -6.7571  -6.5068  -6.3082  -6.0415
    -3.9252  -3.9172  -3.6322  -3.5488  -3.4713  -3.3919  -2.9674  -2.8687
    -2.7718  -2.7416

     occupation numbers 
     1.0000   1.0000   1.0000   1.0000   1.0000   1.0000   1.0000   1.0000
     1.0000   1.0000   1.0000   1.0000   1.0000   1.0000   1.0000   1.0000
     1.0000   1.0000   1.0000   1.0000   1.0000   1.0000   1.0000   1.0000
     1.0000   1.0000   1.0000   1.0000   1.0000   1.0000   1.0000   1.0000
     0.0000   0.0000   0.0000   0.0000   0.0000   0.0000   0.0000   0.0000
     0.0000   0.0000

          k = 0.0625 0.5413 0.0000 ( 52565 PWs)   bands (ev):

   -74.4675 -74.4674 -46.2198 -46.2194 -46.1907 -46.1894 -46.1876 -46.1863
   -18.1082 -17.8807 -17.5640 -17.5588 -17.4823 -17.4011  -9.8467  -9.2192
    -9.1540  -8.6816  -8.5110  -8.4871  -8.1773  -7.8581  -7.6640  -7.5004
    -7.4577  -7.2876  -6.9704  -6.8205  -6.7256  -6.5465  -6.3306  -6.0184
    -3.9533  -3.9388  -3.6367  -3.5493  -3.4668  -3.3802  -2.9699  -2.8604
    -2.7489  -2.7455

     occupation numbers 
     1.0000   1.0000   1.0000   1.0000   1.0000   1.0000   1.0000   1.0000
     1.0000   1.0000   1.0000   1.0000   1.0000   1.0000   1.0000   1.0000
     1.0000   1.0000   1.0000   1.0000   1.0000   1.0000   1.0000   1.0000
     1.0000   1.0000   1.0000   1.0000   1.0000   1.0000   1.0000   1.0000
     0.0000   0.0000   0.0000   0.0000   0.0000   0.0000   0.0000   0.0000
     0.0000   0.0000

          k = 0.1250 0.2165 0.0000 ( 52635 PWs)   bands (ev):

   -74.4676 -74.4673 -46.2202 -46.2191 -46.1905 -46.1901 -46.1870 -46.1865
   -18.3761 -17.7085 -17.5727 -17.5122 -17.3785 -17.3716  -9.8454  -9.3722
    -9.0038  -8.9644  -8.8067  -8.5589  -8.0891  -7.8777  -7.6998  -7.5467
    -7.4374  -7.2597  -7.1572  -6.7326  -6.4295  -6.4045  -6.2897  -5.9705
    -3.8359  -3.7944  -3.6348  -3.5825  -3.4814  -3.4804  -2.9632  -2.8845
    -2.7975  -2.6850

     occupation numbers 
     1.0000   1.0000   1.0000   1.0000   1.0000   1.0000   1.0000   1.0000
     1.0000   1.0000   1.0000   1.0000   1.0000   1.0000   1.0000   1.0000
     1.0000   1.0000   1.0000   1.0000   1.0000   1.0000   1.0000   1.0000
     1.0000   1.0000   1.0000   1.0000   1.0000   1.0000   1.0000   1.0000
     0.0000   0.0000   0.0000   0.0000   0.0000   0.0000   0.0000   0.0000
     0.0000   0.0000

          k = 0.1250 0.2887 0.0000 ( 52604 PWs)   bands (ev):

   -74.4675 -74.4673 -46.2201 -46.2191 -46.1906 -46.1899 -46.1871 -46.1864
   -18.3235 -17.6790 -17.6309 -17.5370 -17.3923 -17.3788  -9.8271  -9.3663
    -9.0375  -8.9708  -8.7780  -8.4247  -8.0047  -7.9226  -7.7205  -7.4887
    -7.3500  -7.2308  -7.1106  -6.8991  -6.5259  -6.4275  -6.3017  -6.0494
    -3.8475  -3.8137  -3.6389  -3.5579  -3.4754  -3.4653  -2.9826  -2.8680
    -2.8092  -2.7026

     occupation numbers 
     1.0000   1.0000   1.0000   1.0000   1.0000   1.0000   1.0000   1.0000
     1.0000   1.0000   1.0000   1.0000   1.0000   1.0000   1.0000   1.0000
     1.0000   1.0000   1.0000   1.0000   1.0000   1.0000   1.0000   1.0000
     1.0000   1.0000   1.0000   1.0000   1.0000   1.0000   1.0000   1.0000
     0.0000   0.0000   0.0000   0.0000   0.0000   0.0000   0.0000   0.0000
     0.0000   0.0000

          k = 0.1250 0.3608 0.0000 ( 52572 PWs)   bands (ev):

   -74.4675 -74.4674 -46.2200 -46.2192 -46.1906 -46.1897 -46.1873 -46.1864
   -18.2596 -17.7017 -17.6440 -17.5590 -17.4120 -17.3877  -9.8070  -9.3448
    -9.0695  -8.9427  -8.7159  -8.3139  -8.1540  -7.7714  -7.7138  -7.5378
    -7.2472  -7.2162  -7.1515  -6.9574  -6.5977  -6.4484  -6.2948  -6.1027
    -3.8804  -3.8385  -3.6425  -3.5670  -3.4613  -3.4346  -2.9777  -2.8547
    -2.8051  -2.7208

     occupation numbers 
     1.0000   1.0000   1.0000   1.0000   1.0000   1.0000   1.0000   1.0000
     1.0000   1.0000   1.0000   1.0000   1.0000   1.0000   1.0000   1.0000
     1.0000   1.0000   1.0000   1.0000   1.0000   1.0000   1.0000   1.0000
     1.0000   1.0000   1.0000   1.0000   1.0000   1.0000   1.0000   1.0000
     0.0000   0.0000   0.0000   0.0000   0.0000   0.0000   0.0000   0.0000
     0.0000   0.0000

          k = 0.1250 0.4330 0.0000 ( 52581 PWs)   bands (ev):

   -74.4675 -74.4674 -46.2199 -46.2193 -46.1907 -46.1895 -46.1875 -46.1863
   -18.1883 -17.7794 -17.6055 -17.5758 -17.4379 -17.3958  -9.7938  -9.3031
    -9.0966  -8.8795  -8.6262  -8.3163  -8.2469  -7.7553  -7.6275  -7.5483
    -7.4554  -7.2220  -6.9900  -6.8856  -6.6873  -6.4819  -6.2938  -6.1040
    -3.9137  -3.8798  -3.6399  -3.5846  -3.4503  -3.4071  -2.9572  -2.8495
    -2.7830  -2.7359

     occupation numbers 
     1.0000   1.0000   1.0000   1.0000   1.0000   1.0000   1.0000   1.0000
     1.0000   1.0000   1.0000   1.0000   1.0000   1.0000   1.0000   1.0000
     1.0000   1.0000   1.0000   1.0000   1.0000   1.0000   1.0000   1.0000
     1.0000   1.0000   1.0000   1.0000   1.0000   1.0000   1.0000   1.0000
     0.0000   0.0000   0.0000   0.0000   0.0000   0.0000   0.0000   0.0000
     0.0000   0.0000

          k = 0.1250 0.5052 0.0000 ( 52542 PWs)   bands (ev):

   -74.4675 -74.4674 -46.2198 -46.2194 -46.1907 -46.1893 -46.1877 -46.1863
   -18.1187 -17.8535 -17.5865 -17.5678 -17.4677 -17.4013  -9.7889  -9.2575
    -9.1144  -8.7848  -8.5386  -8.4696  -8.2099  -7.8534  -7.6669  -7.5388
    -7.4176  -7.2301  -6.9056  -6.8403  -6.7203  -6.5279  -6.3082  -6.0753
    -3.9368  -3.9196  -3.6358  -3.5989  -3.4435  -3.3905  -2.9393  -2.8509
    -2.7540  -2.7433

     occupation numbers 
     1.0000   1.0000   1.0000   1.0000   1.0000   1.0000   1.0000   1.0000
     1.0000   1.0000   1.0000   1.0000   1.0000   1.0000   1.0000   1.0000
     1.0000   1.0000   1.0000   1.0000   1.0000   1.0000   1.0000   1.0000
     1.0000   1.0000   1.0000   1.0000   1.0000   1.0000   1.0000   1.0000
     0.0000   0.0000   0.0000   0.0000   0.0000   0.0000   0.0000   0.0000
     0.0000   0.0000

          k = 0.1250 0.5774 0.0000 ( 52536 PWs)   bands (ev):

   -74.4675 -74.4674 -46.2198 -46.2194 -46.1907 -46.1893 -46.1878 -46.1863
   -18.0822 -17.8918 -17.5901 -17.5460 -17.4868 -17.4032  -9.7880  -9.2373
    -9.1207  -8.6953  -8.6016  -8.4732  -8.1831  -7.9500  -7.6626  -7.5558
    -7.3549  -7.2342  -6.8970  -6.8533  -6.6759  -6.5620  -6.3161  -6.0607
    -3.9417  -3.9393  -3.6335  -3.6049  -3.4411  -3.3851  -2.9328  -2.8524
    -2.7509  -2.7345

     occupation numbers 
     1.0000   1.0000   1.0000   1.0000   1.0000   1.0000   1.0000   1.0000
     1.0000   1.0000   1.0000   1.0000   1.0000   1.0000   1.0000   1.0000
     1.0000   1.0000   1.0000   1.0000   1.0000   1.0000   1.0000   1.0000
     1.0000   1.0000   1.0000   1.0000   1.0000   1.0000   1.0000   1.0000
     0.0000   0.0000   0.0000   0.0000   0.0000   0.0000   0.0000   0.0000
     0.0000   0.0000

          k = 0.1875 0.3248 0.0000 ( 52565 PWs)   bands (ev):

   -74.4675 -74.4674 -46.2200 -46.2192 -46.1907 -46.1897 -46.1873 -46.1864
   -18.2662 -17.6861 -17.6477 -17.5677 -17.4081 -17.3864  -9.7880  -9.3662
    -9.0346  -8.9854  -8.7331  -8.3150  -8.1450  -7.7765  -7.6983  -7.5609
    -7.2481  -7.1902  -7.1779  -6.9695  -6.4997  -6.4714  -6.3017  -6.1286
    -3.8683  -3.8307  -3.6557  -3.5687  -3.4511  -3.4474  -2.9836  -2.8347
    -2.8146  -2.7155

     occupation numbers 
     1.0000   1.0000   1.0000   1.0000   1.0000   1.0000   1.0000   1.0000
     1.0000   1.0000   1.0000   1.0000   1.0000   1.0000   1.0000   1.0000
     1.0000   1.0000   1.0000   1.0000   1.0000   1.0000   1.0000   1.0000
     1.0000   1.0000   1.0000   1.0000   1.0000   1.0000   1.0000   1.0000
     0.0000   0.0000   0.0000   0.0000   0.0000   0.0000   0.0000   0.0000
     0.0000   0.0000

          k = 0.1875 0.3969 0.0000 ( 52546 PWs)   bands (ev):

   -74.4675 -74.4674 -46.2199 -46.2193 -46.1907 -46.1895 -46.1876 -46.1863
   -18.1993 -17.7521 -17.6120 -17.5940 -17.4282 -17.3957  -9.7444  -9.3519
    -9.0407  -8.9590  -8.6608  -8.3049  -8.2464  -7.7258  -7.6566  -7.5556
    -7.4617  -7.1694  -7.0397  -6.8989  -6.5582  -6.4838  -6.2852  -6.1730
    -3.9074  -3.8424  -3.6727  -3.5889  -3.4375  -3.4214  -2.9570  -2.8223
    -2.7942  -2.7300

     occupation numbers 
     1.0000   1.0000   1.0000   1.0000   1.0000   1.0000   1.0000   1.0000
     1.0000   1.0000   1.0000   1.0000   1.0000   1.0000   1.0000   1.0000
     1.0000   1.0000   1.0000   1.0000   1.0000   1.0000   1.0000   1.0000
     1.0000   1.0000   1.0000   1.0000   1.0000   1.0000   1.0000   1.0000
     0.0000   0.0000   0.0000   0.0000   0.0000   0.0000   0.0000   0.0000
     0.0000   0.0000

          k = 0.1875 0.4691 0.0000 ( 52547 PWs)   bands (ev):

   -74.4675 -74.4674 -46.2198 -46.2194 -46.1908 -46.1893 -46.1878 -46.1863
   -18.1280 -17.8239 -17.6124 -17.5748 -17.4534 -17.4035  -9.7126  -9.3176
    -9.0552  -8.8903  -8.5734  -8.4652  -8.2205  -7.8486  -7.6750  -7.5684
    -7.3889  -7.1663  -6.9610  -6.7864  -6.6532  -6.5141  -6.2838  -6.1588
    -3.9325  -3.8752  -3.6757  -3.6106  -3.4280  -3.4032  -2.9190  -2.8298
    -2.7580  -2.7409

     occupation numbers 
     1.0000   1.0000   1.0000   1.0000   1.0000   1.0000   1.0000   1.0000
     1.0000   1.0000   1.0000   1.0000   1.0000   1.0000   1.0000   1.0000
     1.0000   1.0000   1.0000   1.0000   1.0000   1.0000   1.0000   1.0000
     1.0000   1.0000   1.0000   1.0000   1.0000   1.0000   1.0000   1.0000
     0.0000   0.0000   0.0000   0.0000   0.0000   0.0000   0.0000   0.0000
     0.0000   0.0000

          k = 0.1875 0.5413 0.0000 ( 52536 PWs)   bands (ev):

   -74.4675 -74.4674 -46.2198 -46.2195 -46.1908 -46.1891 -46.1879 -46.1863
   -18.0675 -17.8851 -17.6217 -17.5425 -17.4793 -17.4079  -9.6982  -9.2841
    -9.0645  -8.7925  -8.6406  -8.4655  -8.2097  -8.0101  -7.6516  -7.6022
    -7.2696  -7.1691  -6.9134  -6.7804  -6.6545  -6.5592  -6.2917  -6.1325
    -3.9367  -3.9105  -3.6701  -3.6271  -3.4232  -3.3941  -2.8888  -2.8406
    -2.7557  -2.7238

     occupation numbers 
     1.0000   1.0000   1.0000   1.0000   1.0000   1.0000   1.0000   1.0000
     1.0000   1.0000   1.0000   1.0000   1.0000   1.0000   1.0000   1.0000
     1.0000   1.0000   1.0000   1.0000   1.0000   1.0000   1.0000   1.0000
     1.0000   1.0000   1.0000   1.0000   1.0000   1.0000   1.0000   1.0000
     0.0000   0.0000   0.0000   0.0000   0.0000   0.0000   0.0000   0.0000
     0.0000   0.0000

          k = 0.2500 0.4330 0.0000 ( 52526 PWs)   bands (ev):

   -74.4675 -74.4674 -46.2198 -46.2194 -46.1908 -46.1892 -46.1878 -46.1863
   -18.1315 -17.8101 -17.6248 -17.5774 -17.4469 -17.4055  -9.6694  -9.3555
    -8.9939  -8.9666  -8.5896  -8.4653  -8.2205  -7.8468  -7.6794  -7.5791
    -7.3785  -7.1301  -6.9975  -6.7860  -6.5650  -6.5324  -6.2584  -6.2214
    -3.9310  -3.8468  -3.7082  -3.6078  -3.4208  -3.4109  -2.9141  -2.8178
    -2.7588  -2.7398

     occupation numbers 
     1.0000   1.0000   1.0000   1.0000   1.0000   1.0000   1.0000   1.0000
     1.0000   1.0000   1.0000   1.0000   1.0000   1.0000   1.0000   1.0000
     1.0000   1.0000   1.0000   1.0000   1.0000   1.0000   1.0000   1.0000
     1.0000   1.0000   1.0000   1.0000   1.0000   1.0000   1.0000   1.0000
     0.0000   0.0000   0.0000   0.0000   0.0000   0.0000   0.0000   0.0000
     0.0000   0.0000

          k = 0.2500 0.5052 0.0000 ( 52521 PWs)   bands (ev):

   -74.4675 -74.4674 -46.2198 -46.2195 -46.1908 -46.1890 -46.1881 -46.1862
   -18.0626 -17.8726 -17.6450 -17.5434 -17.4692 -17.4134  -9.6082  -9.3480
    -8.9914  -8.9019  -8.6496  -8.4750  -8.2203  -8.0387  -7.6448  -7.6284
    -7.2240  -7.1084  -6.9751  -6.6909  -6.6329  -6.5571  -6.2634  -6.2121
    -3.9340  -3.8720  -3.7268  -3.6224  -3.4124  -3.4029  -2.8686  -2.8220
    -2.7598  -2.7164

     occupation numbers 
     1.0000   1.0000   1.0000   1.0000   1.0000   1.0000   1.0000   1.0000
     1.0000   1.0000   1.0000   1.0000   1.0000   1.0000   1.0000   1.0000
     1.0000   1.0000   1.0000   1.0000   1.0000   1.0000   1.0000   1.0000
     1.0000   1.0000   1.0000   1.0000   1.0000   1.0000   1.0000   1.0000
     0.0000   0.0000   0.0000   0.0000   0.0000   0.0000   0.0000   0.0000
     0.0000   0.0000

          k = 0.2500 0.5774 0.0000 ( 52520 PWs)   bands (ev):

   -74.4675 -74.4674 -46.2197 -46.2195 -46.1908 -46.1889 -46.1882 -46.1862
   -18.0212 -17.9120 -17.6519 -17.5225 -17.4859 -17.4163  -9.5856  -9.3402
    -8.9952  -8.8165  -8.7663  -8.4165  -8.2236  -8.1362  -7.6433  -7.6311
    -7.1558  -7.1048  -6.9599  -6.7024  -6.6151  -6.5815  -6.2715  -6.1996
    -3.9228  -3.8968  -3.7303  -3.6283  -3.4103  -3.3995  -2.8373  -2.8354
    -2.7671  -2.7014

     occupation numbers 
     1.0000   1.0000   1.0000   1.0000   1.0000   1.0000   1.0000   1.0000
     1.0000   1.0000   1.0000   1.0000   1.0000   1.0000   1.0000   1.0000
     1.0000   1.0000   1.0000   1.0000   1.0000   1.0000   1.0000   1.0000
     1.0000   1.0000   1.0000   1.0000   1.0000   1.0000   1.0000   1.0000
     0.0000   0.0000   0.0000   0.0000   0.0000   0.0000   0.0000   0.0000
     0.0000   0.0000

          k = 0.3125 0.5413 0.0000 ( 52528 PWs)   bands (ev):

   -74.4675 -74.4674 -46.2197 -46.2196 -46.1908 -46.1887 -46.1883 -46.1862
   -17.9980 -17.9268 -17.6642 -17.5147 -17.4875 -17.4208  -9.5045  -9.3985
    -8.9162  -8.9012  -8.7908  -8.3914  -8.2283  -8.1910  -7.6577  -7.6234
    -7.1121  -7.0566  -7.0067  -6.6401  -6.6310  -6.5829  -6.2524  -6.2439
    -3.9151  -3.8845  -3.7620  -3.6281  -3.4041  -3.4039  -2.8340  -2.8102
    -2.7783  -2.6916

     occupation numbers 
     1.0000   1.0000   1.0000   1.0000   1.0000   1.0000   1.0000   1.0000
     1.0000   1.0000   1.0000   1.0000   1.0000   1.0000   1.0000   1.0000
     1.0000   1.0000   1.0000   1.0000   1.0000   1.0000   1.0000   1.0000
     1.0000   1.0000   1.0000   1.0000   1.0000   1.0000   1.0000   1.0000
     0.0000   0.0000   0.0000   0.0000   0.0000   0.0000   0.0000   0.0000
     0.0000   0.0000

     the Fermi energy is    -4.9346 ev

!    total energy              =    -512.08856856 Ry
     estimated scf accuracy    <          5.9E-14 Ry
     smearing contrib. (-TS)   =      -0.00000000 Ry
     internal energy E=F+TS    =    -512.08856856 Ry

     The total energy is F=E-TS. E is the sum of the following terms:
     one-electron contribution =   -1703.12210162 Ry
     hartree contribution      =     845.80893799 Ry
     xc contribution           =     -99.95649533 Ry
     ewald contribution        =     445.18109040 Ry

     total magnetization       =     6.00 Bohr mag/cell
     absolute magnetization    =     7.13 Bohr mag/cell

     convergence has been achieved in  18 iterations

     Writing all to output data dir ./cri3_90Ry_k16x16x1.save/
 
     init_run     :     23.27s CPU     24.29s WALL (       1 calls)
     electrons    :   1563.39s CPU   1592.99s WALL (       1 calls)

     Called by init_run:
     wfcinit      :     21.98s CPU     22.93s WALL (       1 calls)
     wfcinit:atom :      0.27s CPU      0.45s WALL (      60 calls)
     wfcinit:wfcr :     20.43s CPU     20.97s WALL (      60 calls)
     potinit      :      0.35s CPU      0.35s WALL (       1 calls)
     hinit0       :      0.56s CPU      0.61s WALL (       1 calls)

     Called by electrons:
     c_bands      :   1387.65s CPU   1414.22s WALL (      18 calls)
     sum_band     :    172.92s CPU    175.75s WALL (      18 calls)
     v_of_rho     :      0.66s CPU      0.67s WALL (      19 calls)
     v_h          :      0.24s CPU      0.24s WALL (      19 calls)
     v_xc         :      0.42s CPU      0.43s WALL (      19 calls)
     mix_rho      :      1.94s CPU      1.98s WALL (      18 calls)

     Called by c_bands:
     init_us_2    :     20.45s CPU     20.62s WALL (    2220 calls)
     init_us_2:cp :     20.41s CPU     20.61s WALL (    2220 calls)
     cegterg      :   1290.50s CPU   1316.38s WALL (    1093 calls)

     Called by sum_band:
     sum_band:wei :      0.02s CPU      0.02s WALL (      18 calls)
     sum_band:loo :    172.06s CPU    174.87s WALL (      18 calls)
     sum_band:buf :      3.98s CPU      4.02s WALL (    1080 calls)
     sum_band:ini :      9.96s CPU     10.03s WALL (    1080 calls)

     Called by *egterg:
     cdiaghg      :     24.11s CPU     27.72s WALL (    6068 calls)
     cegterg:over :     65.25s CPU     66.08s WALL (    4988 calls)
     cegterg:upda :     99.60s CPU    100.70s WALL (    4988 calls)
     cegterg:last :    114.75s CPU    115.64s WALL (    2851 calls)
     cdiaghg:chol :      1.91s CPU      1.96s WALL (    6068 calls)
     cdiaghg:inve :      1.16s CPU      1.20s WALL (    6068 calls)
     cdiaghg:para :      1.79s CPU      1.85s WALL (   12136 calls)
     h_psi        :    976.45s CPU    995.66s WALL (    6141 calls)
     g_psi        :      4.61s CPU      4.67s WALL (    4988 calls)

     Called by h_psi:
     h_psi:calbec :     58.22s CPU     58.85s WALL (    6141 calls)
     vloc_psi     :    840.09s CPU    857.64s WALL (    6141 calls)
     add_vuspsi   :     66.28s CPU     66.75s WALL (    6141 calls)

     General routines
     calbec       :     58.17s CPU     58.83s WALL (    6141 calls)
     fft          :      0.60s CPU      0.65s WALL (      93 calls)
     ffts         :      0.20s CPU      0.21s WALL (      36 calls)
     fftw         :    698.90s CPU    713.23s WALL (  334716 calls)
 
     Parallel routines
 
     PWSCF        :  26m28.29s CPU  27m10.66s WALL

 
   This run was terminated on:  15:56:21  18Jan2024            

=------------------------------------------------------------------------------=
   JOB DONE.
=------------------------------------------------------------------------------=
