
     Program PWSCF v.7.0 starts on 19Jan2024 at 10:58:40 

     This program is part of the open-source Quantum ESPRESSO suite
     for quantum simulation of materials; please cite
         "P. Giannozzi et al., J. Phys.:Condens. Matter 21 395502 (2009);
         "P. Giannozzi et al., J. Phys.:Condens. Matter 29 465901 (2017);
         "P. Giannozzi et al., J. Chem. Phys. 152 154105 (2020);
          URL http://www.quantum-espresso.org", 
     in publications or presentations arising from this work. More details at
     http://www.quantum-espresso.org/quote

     Parallel version (MPI), running on    12 processors

     MPI processes distributed on     1 nodes
     R & G space division:  proc/nbgrp/npool/nimage =      12
     163601 MiB available memory on the printing compute node when the environment starts
 
     Reading input from cri3-exp-nosoc_50Ry_k8x8x1.scf.in

     Current dimensions of program PWSCF are:
     Max number of different atomic species (ntypx) = 10
     Max number of k-points (npk) =  40000
     Max angular momentum in pseudopotentials (lmaxx) =  4

     Subspace diagonalization in iterative solution of the eigenvalue problem:
     one sub-group per band group will be used
     scalapack distributed-memory algorithm (size of sub-group:  3*  3 procs)

 
     Parallelization info
     --------------------
     sticks:   dense  smooth     PW     G-vecs:    dense   smooth      PW
     Min         194     194     53                14518    14518    2061
     Max         195     195     54                14525    14525    2066
     Sum        2335    2335    637               174251   174251   24755
 
     Using Slab Decomposition
 


     bravais-lattice index     =            4
     lattice parameter (alat)  =      12.9767  a.u.
     unit-cell volume          =    3645.8815 (a.u.)^3
     number of atoms/cell      =            8
     number of atomic types    =            2
     number of electrons       =        70.00
     number of Kohn-Sham states=           42
     kinetic-energy cutoff     =      50.0000  Ry
     charge density cutoff     =     200.0000  Ry
     scf convergence threshold =      1.0E-13
     mixing beta               =       0.7000
     number of iterations used =            8  plain     mixing
     Exchange-correlation= PZ
                           (   1   1   0   0   0   0   0)

     celldm(1)=  12.976749  celldm(2)=   0.000000  celldm(3)=   1.926523
     celldm(4)=   0.000000  celldm(5)=   0.000000  celldm(6)=   0.000000

     crystal axes: (cart. coord. in units of alat)
               a(1) = (   1.000000   0.000000   0.000000 )  
               a(2) = (  -0.500000   0.866025   0.000000 )  
               a(3) = (   0.000000   0.000000   1.926523 )  

     reciprocal axes: (cart. coord. in units 2 pi/alat)
               b(1) = (  1.000000  0.577350  0.000000 )  
               b(2) = (  0.000000  1.154701  0.000000 )  
               b(3) = (  0.000000  0.000000  0.519070 )  


     PseudoPot. # 1 for Cr read from file:
     ./Cr_Alejandro.upf
     MD5 check sum: 19f8874af457815d5c8e16c7b8c57f71
     Pseudo is Norm-conserving + core correction, Zval = 14.0
     Generated using ONCVPSP code by D. R. Hamann
     Using radial grid of 1600 points,  6 beta functions with: 
                l(1) =   0
                l(2) =   0
                l(3) =   1
                l(4) =   1
                l(5) =   2
                l(6) =   2

     PseudoPot. # 2 for I  read from file:
     ./I_Alejandro.upf
     MD5 check sum: d0d4d45a39a9ecd37d4d9deb6bd296a3
     Pseudo is Norm-conserving + core correction, Zval =  7.0
     Generated using ONCVPSP code by D. R. Hamann
     Using radial grid of 1196 points,  6 beta functions with: 
                l(1) =   0
                l(2) =   0
                l(3) =   1
                l(4) =   1
                l(5) =   2
                l(6) =   2

     atomic species   valence    mass     pseudopotential
        Cr            14.00    51.99000     Cr( 1.00)
        I              7.00   126.90000     I ( 1.00)

     Starting magnetic structure 
     atomic species   magnetization
        Cr           1.000
        I            0.000

     12 Sym. Ops., with inversion, found


                                    s                        frac. trans.

      isym =  1     identity                                     

 cryst.   s( 1) = (     1          0          0      )
                  (     0          1          0      )
                  (     0          0          1      )

 cart.    s( 1) = (  1.0000000  0.0000000  0.0000000 )
                  (  0.0000000  1.0000000  0.0000000 )
                  (  0.0000000  0.0000000  1.0000000 )


      isym =  2     180 deg rotation - cart. axis [0,1,0]        

 cryst.   s( 2) = (    -1          0          0      )
                  (     1          1          0      )
                  (     0          0         -1      )

 cart.    s( 2) = ( -1.0000000  0.0000000  0.0000000 )
                  (  0.0000000  1.0000000  0.0000000 )
                  (  0.0000000  0.0000000 -1.0000000 )


      isym =  3     120 deg rotation - cryst. axis [0,0,1]       

 cryst.   s( 3) = (     0          1          0      )
                  (    -1         -1          0      )
                  (     0          0          1      )

 cart.    s( 3) = ( -0.5000000 -0.8660254  0.0000000 )
                  (  0.8660254 -0.5000000  0.0000000 )
                  (  0.0000000  0.0000000  1.0000000 )


      isym =  4     120 deg rotation - cryst. axis [0,0,-1]      

 cryst.   s( 4) = (    -1         -1          0      )
                  (     1          0          0      )
                  (     0          0          1      )

 cart.    s( 4) = ( -0.5000000  0.8660254  0.0000000 )
                  ( -0.8660254 -0.5000000  0.0000000 )
                  (  0.0000000  0.0000000  1.0000000 )


      isym =  5     180 deg rotation - cryst. axis [1,-1,0]      

 cryst.   s( 5) = (     0         -1          0      )
                  (    -1          0          0      )
                  (     0          0         -1      )

 cart.    s( 5) = (  0.5000000 -0.8660254  0.0000000 )
                  ( -0.8660254 -0.5000000  0.0000000 )
                  (  0.0000000  0.0000000 -1.0000000 )


      isym =  6     180 deg rotation - cryst. axis [2,1,0]       

 cryst.   s( 6) = (     1          1          0      )
                  (     0         -1          0      )
                  (     0          0         -1      )

 cart.    s( 6) = (  0.5000000  0.8660254  0.0000000 )
                  (  0.8660254 -0.5000000  0.0000000 )
                  (  0.0000000  0.0000000 -1.0000000 )


      isym =  7     inversion                                    

 cryst.   s( 7) = (    -1          0          0      )
                  (     0         -1          0      )
                  (     0          0         -1      )

 cart.    s( 7) = ( -1.0000000  0.0000000  0.0000000 )
                  (  0.0000000 -1.0000000  0.0000000 )
                  (  0.0000000  0.0000000 -1.0000000 )


      isym =  8     inv. 180 deg rotation - cart. axis [0,1,0]   

 cryst.   s( 8) = (     1          0          0      )
                  (    -1         -1          0      )
                  (     0          0          1      )

 cart.    s( 8) = (  1.0000000  0.0000000  0.0000000 )
                  (  0.0000000 -1.0000000  0.0000000 )
                  (  0.0000000  0.0000000  1.0000000 )


      isym =  9     inv. 120 deg rotation - cryst. axis [0,0,1]  

 cryst.   s( 9) = (     0         -1          0      )
                  (     1          1          0      )
                  (     0          0         -1      )

 cart.    s( 9) = (  0.5000000  0.8660254  0.0000000 )
                  ( -0.8660254  0.5000000  0.0000000 )
                  (  0.0000000  0.0000000 -1.0000000 )


      isym = 10     inv. 120 deg rotation - cryst. axis [0,0,-1] 

 cryst.   s(10) = (     1          1          0      )
                  (    -1          0          0      )
                  (     0          0         -1      )

 cart.    s(10) = (  0.5000000 -0.8660254  0.0000000 )
                  (  0.8660254  0.5000000  0.0000000 )
                  (  0.0000000  0.0000000 -1.0000000 )


      isym = 11     inv. 180 deg rotation - cryst. axis [1,-1,0] 

 cryst.   s(11) = (     0          1          0      )
                  (     1          0          0      )
                  (     0          0          1      )

 cart.    s(11) = ( -0.5000000  0.8660254  0.0000000 )
                  (  0.8660254  0.5000000  0.0000000 )
                  (  0.0000000  0.0000000  1.0000000 )


      isym = 12     inv. 180 deg rotation - cryst. axis [2,1,0]  

 cryst.   s(12) = (    -1         -1          0      )
                  (     0          1          0      )
                  (     0          0          1      )

 cart.    s(12) = ( -0.5000000 -0.8660254  0.0000000 )
                  ( -0.8660254  0.5000000  0.0000000 )
                  (  0.0000000  0.0000000  1.0000000 )


     point group D_3d (-3m) 
     there are  6 classes
     the character table:

       E     2C3   3C2'  i     2S6   3s_d 
A_1g   1.00  1.00  1.00  1.00  1.00  1.00
A_2g   1.00  1.00 -1.00  1.00  1.00 -1.00
E_g    2.00 -1.00  0.00  2.00 -1.00  0.00
A_1u   1.00  1.00  1.00 -1.00 -1.00 -1.00
A_2u   1.00  1.00 -1.00 -1.00 -1.00  1.00
E_u    2.00 -1.00  0.00 -2.00  1.00  0.00

     the symmetry operations in each class and the name of the first element:

     E        1
          identity                                               
     2C3      3    4
          120 deg rotation - cryst. axis [0,0,1]                 
     3C2'     2    6    5
          180 deg rotation - cart. axis [0,1,0]                  
     i        7
          inversion                                              
     2S6      9   10
          inv. 120 deg rotation - cryst. axis [0,0,1]            
     3s_d     8   12   11
          inv. 180 deg rotation - cart. axis [0,1,0]             

   Cartesian axes

     site n.     atom                  positions (alat units)
         1           Cr  tau(   1) = (   0.5000000   0.2886751   0.0000000  )
         2           Cr  tau(   2) = (   0.0000000   0.5773503   0.0000000  )
         3           I   tau(   3) = (   0.3246775   0.5623579   0.2277694  )
         4           I   tau(   4) = (  -0.1753225   0.3036675   0.2277694  )
         5           I   tau(   5) = (   0.3506450   0.0000000   0.2277694  )
         6           I   tau(   6) = (   0.1753225   0.3036675  -0.2277694  )
         7           I   tau(   7) = (   0.6493550   0.0000000  -0.2277694  )
         8           I   tau(   8) = (  -0.3246775   0.5623579  -0.2277694  )

   Crystallographic axes

     site n.     atom                  positions (cryst. coord.)
         1           Cr  tau(   1) = (  0.6666667  0.3333333  0.0000000  )
         2           Cr  tau(   2) = (  0.3333333  0.6666667  0.0000000  )
         3           I   tau(   3) = (  0.6493550  0.6493550  0.1182283  )
         4           I   tau(   4) = (  0.0000000  0.3506450  0.1182283  )
         5           I   tau(   5) = (  0.3506450  0.0000000  0.1182283  )
         6           I   tau(   6) = (  0.3506450  0.3506450 -0.1182283  )
         7           I   tau(   7) = (  0.6493550  0.0000000 -0.1182283  )
         8           I   tau(   8) = (  0.0000000  0.6493550 -0.1182283  )

     number of k points=    10  Gaussian smearing, width (Ry)=  0.0050
                       cart. coord. in units 2pi/alat
        k(    1) = (   0.0000000   0.0000000   0.0000000), wk =   0.0156250
        k(    2) = (   0.0000000   0.1443376   0.0000000), wk =   0.0937500
        k(    3) = (   0.0000000   0.2886751   0.0000000), wk =   0.0937500
        k(    4) = (   0.0000000   0.4330127   0.0000000), wk =   0.0937500
        k(    5) = (   0.0000000  -0.5773503   0.0000000), wk =   0.0468750
        k(    6) = (   0.1250000   0.2165064   0.0000000), wk =   0.0937500
        k(    7) = (   0.1250000   0.3608439   0.0000000), wk =   0.1875000
        k(    8) = (   0.1250000   0.5051815   0.0000000), wk =   0.1875000
        k(    9) = (   0.2500000   0.4330127   0.0000000), wk =   0.0937500
        k(   10) = (   0.2500000   0.5773503   0.0000000), wk =   0.0937500

                       cryst. coord.
        k(    1) = (   0.0000000   0.0000000   0.0000000), wk =   0.0156250
        k(    2) = (   0.0000000   0.1250000   0.0000000), wk =   0.0937500
        k(    3) = (   0.0000000   0.2500000   0.0000000), wk =   0.0937500
        k(    4) = (   0.0000000   0.3750000   0.0000000), wk =   0.0937500
        k(    5) = (   0.0000000  -0.5000000   0.0000000), wk =   0.0468750
        k(    6) = (   0.1250000   0.1250000   0.0000000), wk =   0.0937500
        k(    7) = (   0.1250000   0.2500000   0.0000000), wk =   0.1875000
        k(    8) = (   0.1250000   0.3750000   0.0000000), wk =   0.1875000
        k(    9) = (   0.2500000   0.2500000   0.0000000), wk =   0.0937500
        k(   10) = (   0.2500000   0.3750000   0.0000000), wk =   0.0937500

     Dense  grid:   174251 G-vectors     FFT dimensions: (  60,  60, 120)

     Dynamical RAM for                 wfc:       1.16 MB

     Dynamical RAM for     wfc (w. buffer):      24.40 MB

     Dynamical RAM for           str. fact:       0.44 MB

     Dynamical RAM for           local pot:       0.00 MB

     Dynamical RAM for          nlocal pot:       3.98 MB

     Dynamical RAM for                qrad:       2.27 MB

     Dynamical RAM for          rho,v,vnew:       2.98 MB

     Dynamical RAM for               rhoin:       0.99 MB

     Dynamical RAM for            rho*nmix:       7.09 MB

     Dynamical RAM for           G-vectors:       0.94 MB

     Dynamical RAM for          h,s,v(r/c):       0.04 MB

     Dynamical RAM for          <psi|beta>:       0.09 MB

     Dynamical RAM for                 psi:       2.32 MB

     Dynamical RAM for                hpsi:       2.32 MB

     Dynamical RAM for      wfcinit/wfcrot:       2.48 MB

     Estimated static dynamical RAM per process >      38.32 MB

     Estimated max dynamical RAM per process >      50.19 MB

     Estimated total dynamical RAM >     602.28 MB
 ----2D----2D----2D----2D----2D----2D----2D----2D----2D----2D----2D----2D
  The code is running with the 2D cutoff
  Please refer to:
  Sohier, T., Calandra, M., & Mauri, F. (2017), 
  Density functional perturbation theory for gated two-dimensional heterostructu
 res:
  Theoretical developments and application to flexural phonons in graphene.
  Physical Review B, 96(7), 75448. https://doi.org/10.1103/PhysRevB.96.075448
 ----2D----2D----2D----2D----2D----2D----2D----2D----2D----2D----2D----2D

     Check: negative core charge=   -0.000023
     Generating pointlists ...
     new r_m :   0.1637 (alat units)  2.1245 (a.u.) for type    1
     new r_m :   0.1637 (alat units)  2.1245 (a.u.) for type    2

     Initial potential from superposition of free atoms

     starting charge      69.9974, renormalised to      70.0000

     negative rho (up, down):  2.430E-03 2.580E-08
     Starting wfcs are   44 randomized atomic wfcs

     total cpu time spent up to now is        2.2 secs

     Self-consistent Calculation

     iteration #  1     ecut=    50.00 Ry     beta= 0.70
     Davidson diagonalization with overlap

---- Real-time Memory Report at c_bands before calling an iterative solver
           173 MiB given to the printing process from OS
             0 MiB allocation reported by mallinfo(arena+hblkhd)
        162888 MiB available memory on the node where the printing process lives
------------------
     c_bands:  5 eigenvalues not converged
     c_bands:  5 eigenvalues not converged
     c_bands:  5 eigenvalues not converged
     c_bands:  3 eigenvalues not converged
     c_bands:  5 eigenvalues not converged
     c_bands:  3 eigenvalues not converged
     c_bands:  3 eigenvalues not converged
     ethr =  5.00E-06,  avg # of iterations = 17.4

     negative rho (up, down):  6.551E-04 0.000E+00

     total cpu time spent up to now is       27.0 secs

     total energy              =    -510.53177011 Ry
     estimated scf accuracy    <       5.53154355 Ry

     total magnetization       =     6.00 Bohr mag/cell
     absolute magnetization    =     9.95 Bohr mag/cell

     iteration #  2     ecut=    50.00 Ry     beta= 0.70
     Davidson diagonalization with overlap

---- Real-time Memory Report at c_bands before calling an iterative solver
           195 MiB given to the printing process from OS
             0 MiB allocation reported by mallinfo(arena+hblkhd)
        155946 MiB available memory on the node where the printing process lives
------------------
     ethr =  7.90E-03,  avg # of iterations =  5.8

     negative rho (up, down):  3.968E-04 0.000E+00

     total cpu time spent up to now is       38.8 secs

     total energy              =    -508.99396775 Ry
     estimated scf accuracy    <       6.16629883 Ry

     total magnetization       =     6.17 Bohr mag/cell
     absolute magnetization    =     8.91 Bohr mag/cell

     iteration #  3     ecut=    50.00 Ry     beta= 0.70
     Davidson diagonalization with overlap

---- Real-time Memory Report at c_bands before calling an iterative solver
           197 MiB given to the printing process from OS
             0 MiB allocation reported by mallinfo(arena+hblkhd)
        154546 MiB available memory on the node where the printing process lives
------------------
     ethr =  7.90E-03,  avg # of iterations =  4.5

     negative rho (up, down):  5.081E-07 0.000E+00

     total cpu time spent up to now is       49.4 secs

     total energy              =    -511.12556976 Ry
     estimated scf accuracy    <       6.40753728 Ry

     total magnetization       =     6.00 Bohr mag/cell
     absolute magnetization    =     6.41 Bohr mag/cell

     iteration #  4     ecut=    50.00 Ry     beta= 0.70
     Davidson diagonalization with overlap

---- Real-time Memory Report at c_bands before calling an iterative solver
           199 MiB given to the printing process from OS
             0 MiB allocation reported by mallinfo(arena+hblkhd)
        154428 MiB available memory on the node where the printing process lives
------------------
     ethr =  7.90E-03,  avg # of iterations =  4.5

     negative rho (up, down):  4.758E-06 0.000E+00

     total cpu time spent up to now is       59.2 secs

     total energy              =    -511.41514955 Ry
     estimated scf accuracy    <       0.76780771 Ry

     total magnetization       =     6.00 Bohr mag/cell
     absolute magnetization    =     6.72 Bohr mag/cell

     iteration #  5     ecut=    50.00 Ry     beta= 0.70
     Davidson diagonalization with overlap

---- Real-time Memory Report at c_bands before calling an iterative solver
           200 MiB given to the printing process from OS
             0 MiB allocation reported by mallinfo(arena+hblkhd)
        154511 MiB available memory on the node where the printing process lives
------------------
     ethr =  1.10E-03,  avg # of iterations =  5.7

     negative rho (up, down):  5.536E-07 0.000E+00

     total cpu time spent up to now is       69.4 secs

     total energy              =    -511.49342859 Ry
     estimated scf accuracy    <       0.07356141 Ry

     total magnetization       =     6.00 Bohr mag/cell
     absolute magnetization    =     6.94 Bohr mag/cell

     iteration #  6     ecut=    50.00 Ry     beta= 0.70
     Davidson diagonalization with overlap

---- Real-time Memory Report at c_bands before calling an iterative solver
           201 MiB given to the printing process from OS
             0 MiB allocation reported by mallinfo(arena+hblkhd)
        154388 MiB available memory on the node where the printing process lives
------------------
     ethr =  1.05E-04,  avg # of iterations =  4.9

     total cpu time spent up to now is       79.3 secs

     total energy              =    -511.50394293 Ry
     estimated scf accuracy    <       0.01045300 Ry

     total magnetization       =     6.00 Bohr mag/cell
     absolute magnetization    =     7.01 Bohr mag/cell

     iteration #  7     ecut=    50.00 Ry     beta= 0.70
     Davidson diagonalization with overlap

---- Real-time Memory Report at c_bands before calling an iterative solver
           202 MiB given to the printing process from OS
             0 MiB allocation reported by mallinfo(arena+hblkhd)
        154533 MiB available memory on the node where the printing process lives
------------------
     ethr =  1.49E-05,  avg # of iterations =  3.2

     total cpu time spent up to now is       87.8 secs

     total energy              =    -511.50381569 Ry
     estimated scf accuracy    <       0.00423307 Ry

     total magnetization       =     6.00 Bohr mag/cell
     absolute magnetization    =     7.01 Bohr mag/cell

     iteration #  8     ecut=    50.00 Ry     beta= 0.70
     Davidson diagonalization with overlap

---- Real-time Memory Report at c_bands before calling an iterative solver
           204 MiB given to the printing process from OS
             0 MiB allocation reported by mallinfo(arena+hblkhd)
        154292 MiB available memory on the node where the printing process lives
------------------
     ethr =  6.05E-06,  avg # of iterations =  2.2

     total cpu time spent up to now is       95.8 secs

     total energy              =    -511.50411233 Ry
     estimated scf accuracy    <       0.00028973 Ry

     total magnetization       =     6.00 Bohr mag/cell
     absolute magnetization    =     7.04 Bohr mag/cell

     iteration #  9     ecut=    50.00 Ry     beta= 0.70
     Davidson diagonalization with overlap

---- Real-time Memory Report at c_bands before calling an iterative solver
           205 MiB given to the printing process from OS
             0 MiB allocation reported by mallinfo(arena+hblkhd)
        154404 MiB available memory on the node where the printing process lives
------------------
     ethr =  4.14E-07,  avg # of iterations =  4.2

     total cpu time spent up to now is      107.3 secs

     total energy              =    -511.50422206 Ry
     estimated scf accuracy    <       0.00003714 Ry

     total magnetization       =     6.00 Bohr mag/cell
     absolute magnetization    =     7.05 Bohr mag/cell

     iteration # 10     ecut=    50.00 Ry     beta= 0.70
     Davidson diagonalization with overlap

---- Real-time Memory Report at c_bands before calling an iterative solver
           206 MiB given to the printing process from OS
             0 MiB allocation reported by mallinfo(arena+hblkhd)
        154249 MiB available memory on the node where the printing process lives
------------------
     ethr =  5.31E-08,  avg # of iterations =  3.4

     total cpu time spent up to now is      117.1 secs

     total energy              =    -511.50422106 Ry
     estimated scf accuracy    <       0.00002838 Ry

     total magnetization       =     6.00 Bohr mag/cell
     absolute magnetization    =     7.05 Bohr mag/cell

     iteration # 11     ecut=    50.00 Ry     beta= 0.70
     Davidson diagonalization with overlap

---- Real-time Memory Report at c_bands before calling an iterative solver
           206 MiB given to the printing process from OS
             0 MiB allocation reported by mallinfo(arena+hblkhd)
        154529 MiB available memory on the node where the printing process lives
------------------
     ethr =  4.05E-08,  avg # of iterations =  2.0

     total cpu time spent up to now is      124.8 secs

     total energy              =    -511.50422419 Ry
     estimated scf accuracy    <       0.00000022 Ry

     total magnetization       =     6.00 Bohr mag/cell
     absolute magnetization    =     7.05 Bohr mag/cell

     iteration # 12     ecut=    50.00 Ry     beta= 0.70
     Davidson diagonalization with overlap

---- Real-time Memory Report at c_bands before calling an iterative solver
           206 MiB given to the printing process from OS
             0 MiB allocation reported by mallinfo(arena+hblkhd)
        154000 MiB available memory on the node where the printing process lives
------------------
     ethr =  3.11E-10,  avg # of iterations =  4.4

     total cpu time spent up to now is      136.1 secs

     total energy              =    -511.50422422 Ry
     estimated scf accuracy    <       0.00000016 Ry

     total magnetization       =     6.00 Bohr mag/cell
     absolute magnetization    =     7.05 Bohr mag/cell

     iteration # 13     ecut=    50.00 Ry     beta= 0.70
     Davidson diagonalization with overlap

---- Real-time Memory Report at c_bands before calling an iterative solver
           206 MiB given to the printing process from OS
             0 MiB allocation reported by mallinfo(arena+hblkhd)
        153997 MiB available memory on the node where the printing process lives
------------------
     ethr =  2.28E-10,  avg # of iterations =  2.0

     total cpu time spent up to now is      144.4 secs

     total energy              =    -511.50422422 Ry
     estimated scf accuracy    <       0.00000004 Ry

     total magnetization       =     6.00 Bohr mag/cell
     absolute magnetization    =     7.05 Bohr mag/cell

     iteration # 14     ecut=    50.00 Ry     beta= 0.70
     Davidson diagonalization with overlap

---- Real-time Memory Report at c_bands before calling an iterative solver
           206 MiB given to the printing process from OS
             0 MiB allocation reported by mallinfo(arena+hblkhd)
        153978 MiB available memory on the node where the printing process lives
------------------
     ethr =  6.26E-11,  avg # of iterations =  2.7

     total cpu time spent up to now is      153.6 secs

     total energy              =    -511.50422423 Ry
     estimated scf accuracy    <          1.6E-09 Ry

     total magnetization       =     6.00 Bohr mag/cell
     absolute magnetization    =     7.05 Bohr mag/cell

     iteration # 15     ecut=    50.00 Ry     beta= 0.70
     Davidson diagonalization with overlap

---- Real-time Memory Report at c_bands before calling an iterative solver
           206 MiB given to the printing process from OS
             0 MiB allocation reported by mallinfo(arena+hblkhd)
        153915 MiB available memory on the node where the printing process lives
------------------
     ethr =  2.32E-12,  avg # of iterations =  4.2

     total cpu time spent up to now is      164.1 secs

     total energy              =    -511.50422423 Ry
     estimated scf accuracy    <          1.3E-11 Ry

     total magnetization       =     6.00 Bohr mag/cell
     absolute magnetization    =     7.05 Bohr mag/cell

     iteration # 16     ecut=    50.00 Ry     beta= 0.70
     Davidson diagonalization with overlap

---- Real-time Memory Report at c_bands before calling an iterative solver
           206 MiB given to the printing process from OS
             0 MiB allocation reported by mallinfo(arena+hblkhd)
        151183 MiB available memory on the node where the printing process lives
------------------
     ethr =  1.00E-13,  avg # of iterations =  4.1

     total cpu time spent up to now is      173.7 secs

     total energy              =    -511.50422423 Ry
     estimated scf accuracy    <          1.5E-12 Ry

     total magnetization       =     6.00 Bohr mag/cell
     absolute magnetization    =     7.05 Bohr mag/cell

     iteration # 17     ecut=    50.00 Ry     beta= 0.70
     Davidson diagonalization with overlap

---- Real-time Memory Report at c_bands before calling an iterative solver
           206 MiB given to the printing process from OS
             0 MiB allocation reported by mallinfo(arena+hblkhd)
        150217 MiB available memory on the node where the printing process lives
------------------
     ethr =  1.00E-13,  avg # of iterations =  1.0

     total cpu time spent up to now is      180.4 secs

     total energy              =    -511.50422423 Ry
     estimated scf accuracy    <          5.3E-13 Ry

     total magnetization       =     6.00 Bohr mag/cell
     absolute magnetization    =     7.05 Bohr mag/cell

     iteration # 18     ecut=    50.00 Ry     beta= 0.70
     Davidson diagonalization with overlap

---- Real-time Memory Report at c_bands before calling an iterative solver
           206 MiB given to the printing process from OS
             0 MiB allocation reported by mallinfo(arena+hblkhd)
        149532 MiB available memory on the node where the printing process lives
------------------
     ethr =  1.00E-13,  avg # of iterations =  1.0

     total cpu time spent up to now is      186.7 secs

     total energy              =    -511.50422423 Ry
     estimated scf accuracy    <          1.1E-13 Ry

     total magnetization       =     6.00 Bohr mag/cell
     absolute magnetization    =     7.05 Bohr mag/cell

     iteration # 19     ecut=    50.00 Ry     beta= 0.70
     Davidson diagonalization with overlap

---- Real-time Memory Report at c_bands before calling an iterative solver
           206 MiB given to the printing process from OS
             0 MiB allocation reported by mallinfo(arena+hblkhd)
        148934 MiB available memory on the node where the printing process lives
------------------
     ethr =  1.00E-13,  avg # of iterations =  1.0
 
     Magnetic moment per site  (integrated on atomic sphere of radius R)
     atom   1 (R=0.164)  charge= 12.4107  magn=  2.8924
     atom   2 (R=0.164)  charge= 12.4107  magn=  2.8924
     atom   3 (R=0.164)  charge=  4.1201  magn= -0.0468
     atom   4 (R=0.164)  charge=  4.1201  magn= -0.0468
     atom   5 (R=0.164)  charge=  4.1201  magn= -0.0468
     atom   6 (R=0.164)  charge=  4.1201  magn= -0.0468
     atom   7 (R=0.164)  charge=  4.1201  magn= -0.0468
     atom   8 (R=0.164)  charge=  4.1201  magn= -0.0468

     total cpu time spent up to now is      193.3 secs

     End of self-consistent calculation

 ------ SPIN UP ------------


          k = 0.0000 0.0000 0.0000 ( 21831 PWs)   bands (ev):

   -78.5050 -78.5005 -50.1923 -50.1914 -50.1810 -50.1810 -50.1800 -50.1800
   -18.4924 -17.7443 -17.4410 -17.4410 -17.3457 -17.3457 -10.1415  -9.6254
    -9.0753  -9.0753  -9.0230  -9.0230  -8.7153  -8.2785  -8.2785  -8.2381
    -7.8287  -7.8287  -7.3962  -6.6777  -6.6777  -6.6555  -6.3832  -6.1180
    -6.1180  -6.0584  -5.9876  -5.9876  -5.5873  -5.5873  -4.3344  -4.3344
    -3.9190  -3.9190

     occupation numbers 
     1.0000   1.0000   1.0000   1.0000   1.0000   1.0000   1.0000   1.0000
     1.0000   1.0000   1.0000   1.0000   1.0000   1.0000   1.0000   1.0000
     1.0000   1.0000   1.0000   1.0000   1.0000   1.0000   1.0000   1.0000
     1.0000   1.0000   1.0000   1.0000   1.0000   1.0000   1.0000   1.0000
     1.0000   1.0000   1.0000   1.0000   1.0000   1.0000   0.0000   0.0000
     0.0000   0.0000

          k = 0.0000 0.1443 0.0000 ( 21773 PWs)   bands (ev):

   -78.5028 -78.4993 -50.1915 -50.1905 -50.1800 -50.1793 -50.1793 -50.1789
   -18.4592 -17.7255 -17.4873 -17.4595 -17.3494 -17.3482 -10.1385  -9.6189
    -9.1007  -9.0878  -9.0668  -8.9632  -8.6117  -8.3215  -8.2826  -8.0571
    -7.8401  -7.7513  -7.3598  -6.8252  -6.7706  -6.5005  -6.4257  -6.2993
    -6.1888  -6.0012  -5.9422  -5.9292  -5.6279  -5.5559  -4.3259  -4.3114
    -4.0356  -3.9385

     occupation numbers 
     1.0000   1.0000   1.0000   1.0000   1.0000   1.0000   1.0000   1.0000
     1.0000   1.0000   1.0000   1.0000   1.0000   1.0000   1.0000   1.0000
     1.0000   1.0000   1.0000   1.0000   1.0000   1.0000   1.0000   1.0000
     1.0000   1.0000   1.0000   1.0000   1.0000   1.0000   1.0000   1.0000
     1.0000   1.0000   1.0000   1.0000   1.0000   1.0000   0.0000   0.0000
     0.0000   0.0000

          k = 0.0000 0.2887 0.0000 ( 21759 PWs)   bands (ev):

   -78.5019 -78.4993 -50.1916 -50.1906 -50.1796 -50.1789 -50.1789 -50.1783
   -18.3640 -17.6727 -17.6093 -17.4963 -17.3697 -17.3638 -10.1205  -9.5967
    -9.1789  -9.1205  -9.0465  -8.7303  -8.4992  -8.3715  -8.3032  -7.8946
    -7.6815  -7.5728  -7.3380  -7.0062  -6.9651  -6.8029  -6.3484  -6.3017
    -6.2595  -5.9617  -5.9229  -5.9176  -5.6853  -5.5205  -4.3204  -4.2667
    -4.1957  -4.0240

     occupation numbers 
     1.0000   1.0000   1.0000   1.0000   1.0000   1.0000   1.0000   1.0000
     1.0000   1.0000   1.0000   1.0000   1.0000   1.0000   1.0000   1.0000
     1.0000   1.0000   1.0000   1.0000   1.0000   1.0000   1.0000   1.0000
     1.0000   1.0000   1.0000   1.0000   1.0000   1.0000   1.0000   1.0000
     1.0000   1.0000   1.0000   1.0000   1.0000   1.0000   0.0000   0.0000
     0.0000   0.0000

          k = 0.0000 0.4330 0.0000 ( 21736 PWs)   bands (ev):

   -78.5007 -78.4990 -50.1910 -50.1909 -50.1794 -50.1783 -50.1782 -50.1773
   -18.2236 -17.7740 -17.5971 -17.5273 -17.4202 -17.3806 -10.1119  -9.5184
    -9.2426  -9.0656  -8.8803  -8.6493  -8.5829  -8.2936  -8.1742  -7.9739
    -7.6625  -7.4932  -7.4212  -7.1506  -6.9439  -6.8469  -6.3628  -6.3575
    -6.2379  -5.9586  -5.9318  -5.8998  -5.7132  -5.5160  -4.3036  -4.2379
    -4.1630  -4.1445

     occupation numbers 
     1.0000   1.0000   1.0000   1.0000   1.0000   1.0000   1.0000   1.0000
     1.0000   1.0000   1.0000   1.0000   1.0000   1.0000   1.0000   1.0000
     1.0000   1.0000   1.0000   1.0000   1.0000   1.0000   1.0000   1.0000
     1.0000   1.0000   1.0000   1.0000   1.0000   1.0000   1.0000   1.0000
     1.0000   1.0000   1.0000   1.0000   1.0000   1.0000   0.0000   0.0000
     0.0000   0.0000

          k = 0.0000-0.5774 0.0000 ( 21764 PWs)   bands (ev):

   -78.5020 -78.4993 -50.1926 -50.1916 -50.1791 -50.1788 -50.1786 -50.1770
   -18.1169 -17.8908 -17.5391 -17.5357 -17.4725 -17.3876 -10.1153  -9.4574
    -9.2667  -8.9918  -8.7654  -8.7029  -8.6040  -8.2411  -8.0980  -8.0253
    -7.8612  -7.6535  -7.3878  -7.0032  -6.8458  -6.7980  -6.4411  -6.4321
    -6.2374  -5.9946  -5.9259  -5.8498  -5.7249  -5.5318  -4.2852  -4.2499
    -4.2151  -4.0926

     occupation numbers 
     1.0000   1.0000   1.0000   1.0000   1.0000   1.0000   1.0000   1.0000
     1.0000   1.0000   1.0000   1.0000   1.0000   1.0000   1.0000   1.0000
     1.0000   1.0000   1.0000   1.0000   1.0000   1.0000   1.0000   1.0000
     1.0000   1.0000   1.0000   1.0000   1.0000   1.0000   1.0000   1.0000
     1.0000   1.0000   1.0000   1.0000   1.0000   1.0000   0.0000   0.0000
     0.0000   0.0000

          k = 0.1250 0.2165 0.0000 ( 21799 PWs)   bands (ev):

   -78.5021 -78.5014 -50.1916 -50.1913 -50.1806 -50.1803 -50.1792 -50.1790
   -18.3950 -17.6898 -17.5627 -17.4970 -17.3623 -17.3560 -10.1169  -9.6151
    -9.1493  -9.1479  -9.0597  -8.7872  -8.4821  -8.4243  -8.2681  -7.8851
    -7.7805  -7.6338  -7.3499  -6.9749  -6.8603  -6.6481  -6.4657  -6.3837
    -6.1709  -5.9855  -5.9389  -5.8930  -5.6713  -5.5298  -4.3439  -4.2807
    -4.1872  -3.9659

     occupation numbers 
     1.0000   1.0000   1.0000   1.0000   1.0000   1.0000   1.0000   1.0000
     1.0000   1.0000   1.0000   1.0000   1.0000   1.0000   1.0000   1.0000
     1.0000   1.0000   1.0000   1.0000   1.0000   1.0000   1.0000   1.0000
     1.0000   1.0000   1.0000   1.0000   1.0000   1.0000   1.0000   1.0000
     1.0000   1.0000   1.0000   1.0000   1.0000   1.0000   0.0000   0.0000
     0.0000   0.0000

          k = 0.1250 0.3608 0.0000 ( 21770 PWs)   bands (ev):

   -78.5020 -78.4998 -50.1917 -50.1906 -50.1800 -50.1795 -50.1787 -50.1784
   -18.2757 -17.6968 -17.6254 -17.5437 -17.3954 -17.3727 -10.0646  -9.5909
    -9.1977  -9.1411  -8.9734  -8.6073  -8.5975  -8.3658  -8.1329  -7.9437
    -7.6651  -7.4932  -7.3887  -7.0686  -6.9721  -6.8313  -6.5305  -6.3505
    -6.1638  -5.9790  -5.9189  -5.8580  -5.7046  -5.5212  -4.3414  -4.2542
    -4.2007  -4.0368

     occupation numbers 
     1.0000   1.0000   1.0000   1.0000   1.0000   1.0000   1.0000   1.0000
     1.0000   1.0000   1.0000   1.0000   1.0000   1.0000   1.0000   1.0000
     1.0000   1.0000   1.0000   1.0000   1.0000   1.0000   1.0000   1.0000
     1.0000   1.0000   1.0000   1.0000   1.0000   1.0000   1.0000   1.0000
     1.0000   1.0000   1.0000   1.0000   1.0000   1.0000   0.0000   0.0000
     0.0000   0.0000

          k = 0.1250 0.5052 0.0000 ( 21769 PWs)   bands (ev):

   -78.5014 -78.5002 -50.1912 -50.1909 -50.1800 -50.1795 -50.1788 -50.1780
   -18.1318 -17.8533 -17.5714 -17.5495 -17.4509 -17.3866 -10.0380  -9.5065
    -9.2319  -9.0589  -8.7973  -8.7627  -8.5860  -8.3133  -8.1887  -7.8962
    -7.8314  -7.4443  -7.3928  -7.0896  -6.8657  -6.7803  -6.5623  -6.4743
    -6.1873  -5.9710  -5.8864  -5.8283  -5.7258  -5.5393  -4.2739  -4.2621
    -4.1674  -4.0739

     occupation numbers 
     1.0000   1.0000   1.0000   1.0000   1.0000   1.0000   1.0000   1.0000
     1.0000   1.0000   1.0000   1.0000   1.0000   1.0000   1.0000   1.0000
     1.0000   1.0000   1.0000   1.0000   1.0000   1.0000   1.0000   1.0000
     1.0000   1.0000   1.0000   1.0000   1.0000   1.0000   1.0000   1.0000
     1.0000   1.0000   1.0000   1.0000   1.0000   1.0000   0.0000   0.0000
     0.0000   0.0000

          k = 0.2500 0.4330 0.0000 ( 21735 PWs)   bands (ev):

   -78.5009 -78.4987 -50.1910 -50.1902 -50.1790 -50.1787 -50.1784 -50.1779
   -18.1442 -17.8109 -17.6095 -17.5591 -17.4299 -17.3902  -9.9207  -9.6022
    -9.1699  -9.1471  -8.8548  -8.7910  -8.5772  -8.3252  -8.2016  -7.9002
    -7.7576  -7.4277  -7.2672  -6.9897  -6.9363  -6.8906  -6.6290  -6.5152
    -6.1544  -5.9502  -5.8249  -5.8132  -5.7211  -5.5492  -4.2830  -4.2534
    -4.1425  -4.0132

     occupation numbers 
     1.0000   1.0000   1.0000   1.0000   1.0000   1.0000   1.0000   1.0000
     1.0000   1.0000   1.0000   1.0000   1.0000   1.0000   1.0000   1.0000
     1.0000   1.0000   1.0000   1.0000   1.0000   1.0000   1.0000   1.0000
     1.0000   1.0000   1.0000   1.0000   1.0000   1.0000   1.0000   1.0000
     1.0000   1.0000   1.0000   1.0000   1.0000   1.0000   0.0000   0.0000
     0.0000   0.0000

          k = 0.2500 0.5774 0.0000 ( 21742 PWs)   bands (ev):

   -78.5008 -78.4991 -50.1914 -50.1905 -50.1792 -50.1790 -50.1780 -50.1776
   -18.0314 -17.9163 -17.6366 -17.5044 -17.4685 -17.4012  -9.8334  -9.5881
    -9.1794  -9.0819  -8.9667  -8.6666  -8.6298  -8.4613  -8.2975  -7.9380
    -7.4626  -7.3958  -7.2406  -7.2125  -6.9267  -6.7443  -6.6779  -6.5906
    -6.1640  -5.9444  -5.8093  -5.7718  -5.6960  -5.5910  -4.2743  -4.1932
    -4.1582  -3.9797

     occupation numbers 
     1.0000   1.0000   1.0000   1.0000   1.0000   1.0000   1.0000   1.0000
     1.0000   1.0000   1.0000   1.0000   1.0000   1.0000   1.0000   1.0000
     1.0000   1.0000   1.0000   1.0000   1.0000   1.0000   1.0000   1.0000
     1.0000   1.0000   1.0000   1.0000   1.0000   1.0000   1.0000   1.0000
     1.0000   1.0000   1.0000   1.0000   1.0000   1.0000   0.0000   0.0000
     0.0000   0.0000

 ------ SPIN DOWN ----------


          k = 0.0000 0.0000 0.0000 ( 21831 PWs)   bands (ev):

   -75.7128 -75.7082 -47.3857 -47.3846 -47.3525 -47.3525 -47.3518 -47.3518
   -18.4685 -17.7588 -17.4513 -17.4513 -17.3561 -17.3561  -9.8733  -9.3979
    -8.9053  -8.9053  -8.7525  -8.7525  -8.6272  -8.0357  -7.6545  -7.6545
    -7.3561  -7.3561  -7.3504  -6.6582  -6.3120  -6.3120  -5.7758  -5.7758
    -3.7753  -3.7746  -3.7746  -3.7101  -3.4136  -3.4136  -2.8451  -2.8451
    -2.5907  -2.5907

     occupation numbers 
     1.0000   1.0000   1.0000   1.0000   1.0000   1.0000   1.0000   1.0000
     1.0000   1.0000   1.0000   1.0000   1.0000   1.0000   1.0000   1.0000
     1.0000   1.0000   1.0000   1.0000   1.0000   1.0000   1.0000   1.0000
     1.0000   1.0000   1.0000   1.0000   1.0000   1.0000   1.0000   1.0000
     0.0000   0.0000   0.0000   0.0000   0.0000   0.0000   0.0000   0.0000
     0.0000   0.0000

          k = 0.0000 0.1443 0.0000 ( 21773 PWs)   bands (ev):

   -75.7106 -75.7070 -47.3849 -47.3836 -47.3517 -47.3508 -47.3507 -47.3505
   -18.4360 -17.7398 -17.4961 -17.4700 -17.3593 -17.3585  -9.8794  -9.3920
    -8.9341  -8.9228  -8.8061  -8.7762  -8.3659  -7.8400  -7.7361  -7.6799
    -7.3761  -7.3312  -7.2707  -6.6670  -6.3539  -6.3061  -6.0518  -5.8469
    -3.8282  -3.7192  -3.7019  -3.6259  -3.4251  -3.4251  -2.8455  -2.8370
    -2.6661  -2.5998

     occupation numbers 
     1.0000   1.0000   1.0000   1.0000   1.0000   1.0000   1.0000   1.0000
     1.0000   1.0000   1.0000   1.0000   1.0000   1.0000   1.0000   1.0000
     1.0000   1.0000   1.0000   1.0000   1.0000   1.0000   1.0000   1.0000
     1.0000   1.0000   1.0000   1.0000   1.0000   1.0000   1.0000   1.0000
     0.0000   0.0000   0.0000   0.0000   0.0000   0.0000   0.0000   0.0000
     0.0000   0.0000

          k = 0.0000 0.2887 0.0000 ( 21759 PWs)   bands (ev):

   -75.7097 -75.7070 -47.3849 -47.3836 -47.3512 -47.3506 -47.3504 -47.3496
   -18.3430 -17.6867 -17.6139 -17.5074 -17.3801 -17.3727  -9.8771  -9.3683
    -9.0644  -8.9396  -8.7871  -8.5096  -8.0176  -7.9500  -7.7516  -7.4318
    -7.4219  -7.3060  -7.0997  -6.7133  -6.6865  -6.3939  -6.2943  -5.9886
    -3.8669  -3.7463  -3.6246  -3.5027  -3.4572  -3.4178  -2.8691  -2.8604
    -2.7251  -2.6407

     occupation numbers 
     1.0000   1.0000   1.0000   1.0000   1.0000   1.0000   1.0000   1.0000
     1.0000   1.0000   1.0000   1.0000   1.0000   1.0000   1.0000   1.0000
     1.0000   1.0000   1.0000   1.0000   1.0000   1.0000   1.0000   1.0000
     1.0000   1.0000   1.0000   1.0000   1.0000   1.0000   1.0000   1.0000
     0.0000   0.0000   0.0000   0.0000   0.0000   0.0000   0.0000   0.0000
     0.0000   0.0000

          k = 0.0000 0.4330 0.0000 ( 21736 PWs)   bands (ev):

   -75.7085 -75.7067 -47.3843 -47.3840 -47.3512 -47.3498 -47.3496 -47.3486
   -18.2057 -17.7735 -17.6106 -17.5388 -17.4310 -17.3885  -9.8791  -9.2877
    -9.1488  -8.8301  -8.6300  -8.2886  -8.2603  -7.7944  -7.6767  -7.5084
    -7.3352  -7.3104  -7.0013  -6.9675  -6.7651  -6.4878  -6.2945  -6.0340
    -3.9101  -3.8707  -3.5792  -3.4775  -3.4629  -3.3495  -2.9048  -2.8170
    -2.7061  -2.6693

     occupation numbers 
     1.0000   1.0000   1.0000   1.0000   1.0000   1.0000   1.0000   1.0000
     1.0000   1.0000   1.0000   1.0000   1.0000   1.0000   1.0000   1.0000
     1.0000   1.0000   1.0000   1.0000   1.0000   1.0000   1.0000   1.0000
     1.0000   1.0000   1.0000   1.0000   1.0000   1.0000   1.0000   1.0000
     0.0000   0.0000   0.0000   0.0000   0.0000   0.0000   0.0000   0.0000
     0.0000   0.0000

          k = 0.0000-0.5774 0.0000 ( 21764 PWs)   bands (ev):

   -75.7097 -75.7070 -47.3860 -47.3848 -47.3506 -47.3503 -47.3503 -47.3483
   -18.1003 -17.8880 -17.5508 -17.5493 -17.4831 -17.3952  -9.8856  -9.2258
    -9.1788  -8.6417  -8.5235  -8.5029  -8.1672  -7.8658  -7.6847  -7.4961
    -7.4893  -7.3177  -7.0202  -6.7850  -6.7458  -6.5503  -6.3393  -5.9965
    -3.9483  -3.9396  -3.5791  -3.4906  -3.4534  -3.3237  -2.9313  -2.7989
    -2.6725  -2.6721

     occupation numbers 
     1.0000   1.0000   1.0000   1.0000   1.0000   1.0000   1.0000   1.0000
     1.0000   1.0000   1.0000   1.0000   1.0000   1.0000   1.0000   1.0000
     1.0000   1.0000   1.0000   1.0000   1.0000   1.0000   1.0000   1.0000
     1.0000   1.0000   1.0000   1.0000   1.0000   1.0000   1.0000   1.0000
     0.0000   0.0000   0.0000   0.0000   0.0000   0.0000   0.0000   0.0000
     0.0000   0.0000

          k = 0.1250 0.2165 0.0000 ( 21799 PWs)   bands (ev):

   -75.7099 -75.7091 -47.3847 -47.3846 -47.3525 -47.3522 -47.3506 -47.3504
   -18.3733 -17.7039 -17.5685 -17.5078 -17.3725 -17.3654  -9.8688  -9.3879
    -9.0148  -8.9747  -8.8124  -8.5729  -8.1040  -7.8941  -7.7159  -7.5478
    -7.4479  -7.2699  -7.1636  -6.7328  -6.4301  -6.4050  -6.2883  -5.9720
    -3.8234  -3.7853  -3.6169  -3.5472  -3.4467  -3.4409  -2.9041  -2.8197
    -2.7354  -2.6196

     occupation numbers 
     1.0000   1.0000   1.0000   1.0000   1.0000   1.0000   1.0000   1.0000
     1.0000   1.0000   1.0000   1.0000   1.0000   1.0000   1.0000   1.0000
     1.0000   1.0000   1.0000   1.0000   1.0000   1.0000   1.0000   1.0000
     1.0000   1.0000   1.0000   1.0000   1.0000   1.0000   1.0000   1.0000
     0.0000   0.0000   0.0000   0.0000   0.0000   0.0000   0.0000   0.0000
     0.0000   0.0000

          k = 0.1250 0.3608 0.0000 ( 21770 PWs)   bands (ev):

   -75.7097 -75.7075 -47.3850 -47.3837 -47.3518 -47.3509 -47.3502 -47.3499
   -18.2567 -17.6977 -17.6391 -17.5546 -17.4061 -17.3814  -9.8280  -9.3614
    -9.0807  -8.9532  -8.7213  -8.3280  -8.1688  -7.7881  -7.7277  -7.5473
    -7.2553  -7.2238  -7.1528  -6.9635  -6.5995  -6.4480  -6.2927  -6.1031
    -3.8745  -3.8219  -3.6209  -3.5188  -3.4231  -3.3854  -2.9203  -2.7908
    -2.7310  -2.6524

     occupation numbers 
     1.0000   1.0000   1.0000   1.0000   1.0000   1.0000   1.0000   1.0000
     1.0000   1.0000   1.0000   1.0000   1.0000   1.0000   1.0000   1.0000
     1.0000   1.0000   1.0000   1.0000   1.0000   1.0000   1.0000   1.0000
     1.0000   1.0000   1.0000   1.0000   1.0000   1.0000   1.0000   1.0000
     0.0000   0.0000   0.0000   0.0000   0.0000   0.0000   0.0000   0.0000
     0.0000   0.0000

          k = 0.1250 0.5052 0.0000 ( 21769 PWs)   bands (ev):

   -75.7091 -75.7079 -47.3845 -47.3841 -47.3519 -47.3509 -47.3504 -47.3493
   -18.1157 -17.8499 -17.5822 -17.5628 -17.4619 -17.3950  -9.8078  -9.2760
    -9.1255  -8.7959  -8.5460  -8.4809  -8.2225  -7.8619  -7.6848  -7.5479
    -7.4322  -7.2365  -6.9112  -6.8440  -6.7235  -6.5269  -6.3069  -6.0739
    -3.9316  -3.9074  -3.5971  -3.5638  -3.4048  -3.3395  -2.8811  -2.7819
    -2.6837  -2.6723

     occupation numbers 
     1.0000   1.0000   1.0000   1.0000   1.0000   1.0000   1.0000   1.0000
     1.0000   1.0000   1.0000   1.0000   1.0000   1.0000   1.0000   1.0000
     1.0000   1.0000   1.0000   1.0000   1.0000   1.0000   1.0000   1.0000
     1.0000   1.0000   1.0000   1.0000   1.0000   1.0000   1.0000   1.0000
     0.0000   0.0000   0.0000   0.0000   0.0000   0.0000   0.0000   0.0000
     0.0000   0.0000

          k = 0.2500 0.4330 0.0000 ( 21735 PWs)   bands (ev):

   -75.7087 -75.7065 -47.3842 -47.3832 -47.3507 -47.3501 -47.3500 -47.3492
   -18.1285 -17.8064 -17.6205 -17.5723 -17.4412 -17.3990  -9.6895  -9.3725
    -9.0056  -8.9768  -8.5951  -8.4773  -8.2335  -7.8538  -7.6976  -7.5871
    -7.3920  -7.1374  -7.0020  -6.7877  -6.5694  -6.5318  -6.2570  -6.2210
    -3.9192  -3.8307  -3.6859  -3.5595  -3.3664  -3.3634  -2.8493  -2.7399
    -2.6869  -2.6619

     occupation numbers 
     1.0000   1.0000   1.0000   1.0000   1.0000   1.0000   1.0000   1.0000
     1.0000   1.0000   1.0000   1.0000   1.0000   1.0000   1.0000   1.0000
     1.0000   1.0000   1.0000   1.0000   1.0000   1.0000   1.0000   1.0000
     1.0000   1.0000   1.0000   1.0000   1.0000   1.0000   1.0000   1.0000
     0.0000   0.0000   0.0000   0.0000   0.0000   0.0000   0.0000   0.0000
     0.0000   0.0000

          k = 0.2500 0.5774 0.0000 ( 21742 PWs)   bands (ev):

   -75.7086 -75.7068 -47.3846 -47.3836 -47.3508 -47.3506 -47.3495 -47.3488
   -18.0180 -17.9085 -17.6476 -17.5173 -17.4803 -17.4098  -9.6048  -9.3597
    -9.0063  -8.8272  -8.7781  -8.4198  -8.2362  -8.1446  -7.6510  -7.6504
    -7.1695  -7.1112  -6.9659  -6.7065  -6.6174  -6.5794  -6.2709  -6.1993
    -3.9165  -3.8763  -3.7091  -3.5798  -3.3637  -3.3443  -2.7702  -2.7657
    -2.6882  -2.6269

     occupation numbers 
     1.0000   1.0000   1.0000   1.0000   1.0000   1.0000   1.0000   1.0000
     1.0000   1.0000   1.0000   1.0000   1.0000   1.0000   1.0000   1.0000
     1.0000   1.0000   1.0000   1.0000   1.0000   1.0000   1.0000   1.0000
     1.0000   1.0000   1.0000   1.0000   1.0000   1.0000   1.0000   1.0000
     0.0000   0.0000   0.0000   0.0000   0.0000   0.0000   0.0000   0.0000
     0.0000   0.0000

     the Fermi energy is    -4.9290 ev

!    total energy              =    -511.50422423 Ry
     estimated scf accuracy    <          2.5E-14 Ry
     smearing contrib. (-TS)   =      -0.00000000 Ry
     internal energy E=F+TS    =    -511.50422423 Ry

     The total energy is F=E-TS. E is the sum of the following terms:
     one-electron contribution =   -1700.89772873 Ry
     hartree contribution      =     843.86459374 Ry
     xc contribution           =     -99.65217998 Ry
     ewald contribution        =     445.18109074 Ry

     total magnetization       =     6.00 Bohr mag/cell
     absolute magnetization    =     7.05 Bohr mag/cell

     convergence has been achieved in  19 iterations

     Writing all to output data dir ./cri3_50Ry_k8x8x1.save/
 
     init_run     :      1.98s CPU      2.08s WALL (       1 calls)
     electrons    :    185.60s CPU    191.24s WALL (       1 calls)

     Called by init_run:
     wfcinit      :      1.33s CPU      1.39s WALL (       1 calls)
     wfcinit:atom :      0.04s CPU      0.04s WALL (      20 calls)
     wfcinit:wfcr :      1.14s CPU      1.19s WALL (      20 calls)
     potinit      :      0.10s CPU      0.10s WALL (       1 calls)
     hinit0       :      0.18s CPU      0.21s WALL (       1 calls)

     Called by electrons:
     c_bands      :    166.24s CPU    171.18s WALL (      19 calls)
     sum_band     :     17.93s CPU     18.43s WALL (      19 calls)
     v_of_rho     :      0.29s CPU      0.29s WALL (      20 calls)
     v_h          :      0.09s CPU      0.09s WALL (      20 calls)
     v_xc         :      0.20s CPU      0.20s WALL (      20 calls)
     mix_rho      :      1.01s CPU      1.04s WALL (      19 calls)

     Called by c_bands:
     init_us_2    :      4.29s CPU      4.36s WALL (     780 calls)
     init_us_2:cp :      4.28s CPU      4.36s WALL (     780 calls)
     cegterg      :    151.20s CPU    155.91s WALL (     383 calls)

     Called by sum_band:
     sum_band:wei :      0.01s CPU      0.01s WALL (      19 calls)
     sum_band:loo :     17.61s CPU     18.09s WALL (      19 calls)
     sum_band:buf :      0.76s CPU      0.78s WALL (     380 calls)
     sum_band:ini :      2.13s CPU      2.16s WALL (     380 calls)

     Called by *egterg:
     cdiaghg      :      8.70s CPU      9.94s WALL (    1944 calls)
     cegterg:over :     11.39s CPU     11.59s WALL (    1564 calls)
     cegterg:upda :     17.62s CPU     17.90s WALL (    1564 calls)
     cegterg:last :     21.02s CPU     21.28s WALL (     917 calls)
     cdiaghg:chol :      0.86s CPU      0.89s WALL (    1944 calls)
     cdiaghg:inve :      0.45s CPU      0.47s WALL (    1944 calls)
     cdiaghg:para :      0.66s CPU      0.69s WALL (    3888 calls)
     h_psi        :     88.81s CPU     91.52s WALL (    1967 calls)
     g_psi        :      0.65s CPU      0.66s WALL (    1564 calls)

     Called by h_psi:
     h_psi:calbec :     11.20s CPU     11.42s WALL (    1967 calls)
     vloc_psi     :     63.51s CPU     65.82s WALL (    1967 calls)
     add_vuspsi   :     12.46s CPU     12.58s WALL (    1967 calls)

     General routines
     calbec       :     11.18s CPU     11.41s WALL (    1967 calls)
     fft          :      0.17s CPU      0.22s WALL (      98 calls)
     ffts         :      0.05s CPU      0.06s WALL (      38 calls)
     fftw         :     51.30s CPU     53.04s WALL (  109986 calls)
 
     Parallel routines
 
     PWSCF        :   3m 8.06s CPU   3m16.91s WALL

 
   This run was terminated on:  11: 1:57  19Jan2024            

=------------------------------------------------------------------------------=
   JOB DONE.
=------------------------------------------------------------------------------=
