
     Program PWSCF v.7.0 starts on 10Jan2024 at 14:51:28 

     This program is part of the open-source Quantum ESPRESSO suite
     for quantum simulation of materials; please cite
         "P. Giannozzi et al., J. Phys.:Condens. Matter 21 395502 (2009);
         "P. Giannozzi et al., J. Phys.:Condens. Matter 29 465901 (2017);
         "P. Giannozzi et al., J. Chem. Phys. 152 154105 (2020);
          URL http://www.quantum-espresso.org", 
     in publications or presentations arising from this work. More details at
     http://www.quantum-espresso.org/quote

     Parallel version (MPI), running on    24 processors

     MPI processes distributed on     1 nodes
     R & G space division:  proc/nbgrp/npool/nimage =      24
     120565 MiB available memory on the printing compute node when the environment starts
 
     Reading input from cri3-exp-nosoc_50Ry.scf.in

     Current dimensions of program PWSCF are:
     Max number of different atomic species (ntypx) = 10
     Max number of k-points (npk) =  40000
     Max angular momentum in pseudopotentials (lmaxx) =  4

     Subspace diagonalization in iterative solution of the eigenvalue problem:
     one sub-group per band group will be used
     scalapack distributed-memory algorithm (size of sub-group:  4*  4 procs)

 
     Parallelization info
     --------------------
     sticks:   dense  smooth     PW     G-vecs:    dense   smooth      PW
     Min          97      97     26                 7259     7259    1028
     Max          98      98     27                 7266     7266    1035
     Sum        2335    2335    637               174251   174251   24755
 
     Using Slab Decomposition
 


     bravais-lattice index     =            4
     lattice parameter (alat)  =      12.9767  a.u.
     unit-cell volume          =    3645.8815 (a.u.)^3
     number of atoms/cell      =            8
     number of atomic types    =            2
     number of electrons       =        70.00
     number of Kohn-Sham states=           42
     kinetic-energy cutoff     =      50.0000  Ry
     charge density cutoff     =     200.0000  Ry
     scf convergence threshold =      1.0E-13
     mixing beta               =       0.7000
     number of iterations used =            8  plain     mixing
     Exchange-correlation= PZ
                           (   1   1   0   0   0   0   0)

     celldm(1)=  12.976749  celldm(2)=   0.000000  celldm(3)=   1.926523
     celldm(4)=   0.000000  celldm(5)=   0.000000  celldm(6)=   0.000000

     crystal axes: (cart. coord. in units of alat)
               a(1) = (   1.000000   0.000000   0.000000 )  
               a(2) = (  -0.500000   0.866025   0.000000 )  
               a(3) = (   0.000000   0.000000   1.926523 )  

     reciprocal axes: (cart. coord. in units 2 pi/alat)
               b(1) = (  1.000000  0.577350  0.000000 )  
               b(2) = (  0.000000  1.154701  0.000000 )  
               b(3) = (  0.000000  0.000000  0.519070 )  


     PseudoPot. # 1 for Cr read from file:
     ./Cr_Alejandro.upf
     MD5 check sum: 19f8874af457815d5c8e16c7b8c57f71
     Pseudo is Norm-conserving + core correction, Zval = 14.0
     Generated using ONCVPSP code by D. R. Hamann
     Using radial grid of 1600 points,  6 beta functions with: 
                l(1) =   0
                l(2) =   0
                l(3) =   1
                l(4) =   1
                l(5) =   2
                l(6) =   2

     PseudoPot. # 2 for I  read from file:
     ./I_Alejandro.upf
     MD5 check sum: d0d4d45a39a9ecd37d4d9deb6bd296a3
     Pseudo is Norm-conserving + core correction, Zval =  7.0
     Generated using ONCVPSP code by D. R. Hamann
     Using radial grid of 1196 points,  6 beta functions with: 
                l(1) =   0
                l(2) =   0
                l(3) =   1
                l(4) =   1
                l(5) =   2
                l(6) =   2

     atomic species   valence    mass     pseudopotential
        Cr            14.00    51.99000     Cr( 1.00)
        I              7.00   126.90000     I ( 1.00)

     Starting magnetic structure 
     atomic species   magnetization
        Cr           1.000
        I            0.000

      6 Sym. Ops. (no inversion) found ( 3 have fractional translation)


                                    s                        frac. trans.

      isym =  1     identity                                     

 cryst.   s( 1) = (     1          0          0      )
                  (     0          1          0      )
                  (     0          0          1      )

 cart.    s( 1) = (  1.0000000  0.0000000  0.0000000 )
                  (  0.0000000  1.0000000  0.0000000 )
                  (  0.0000000  0.0000000  1.0000000 )


      isym =  2     120 deg rotation - cryst. axis [0,0,1]       

 cryst.   s( 2) = (     0          1          0      )
                  (    -1         -1          0      )
                  (     0          0          1      )

 cart.    s( 2) = ( -0.5000000 -0.8660254  0.0000000 )
                  (  0.8660254 -0.5000000  0.0000000 )
                  (  0.0000000  0.0000000  1.0000000 )


      isym =  3     120 deg rotation - cryst. axis [0,0,-1]      

 cryst.   s( 3) = (    -1         -1          0      )
                  (     1          0          0      )
                  (     0          0          1      )

 cart.    s( 3) = ( -0.5000000  0.8660254  0.0000000 )
                  ( -0.8660254 -0.5000000  0.0000000 )
                  (  0.0000000  0.0000000  1.0000000 )


      isym =  4     inv. 180 deg rotation - cart. axis [0,1,0]   

 cryst.   s( 4) = (     1          0          0      )    f =( -0.3333333 )
                  (    -1         -1          0      )       (  0.3333333 )
                  (     0          0          1      )       (  0.0000000 )

 cart.    s( 4) = (  1.0000000  0.0000000  0.0000000 )    f =( -0.5000000 )
                  (  0.0000000 -1.0000000  0.0000000 )       (  0.2886751 )
                  (  0.0000000  0.0000000  1.0000000 )       (  0.0000000 )


      isym =  5     inv. 180 deg rotation - cryst. axis [1,-1,0] 

 cryst.   s( 5) = (     0          1          0      )    f =( -0.3333333 )
                  (     1          0          0      )       (  0.3333333 )
                  (     0          0          1      )       (  0.0000000 )

 cart.    s( 5) = ( -0.5000000  0.8660254  0.0000000 )    f =( -0.5000000 )
                  (  0.8660254  0.5000000  0.0000000 )       (  0.2886751 )
                  (  0.0000000  0.0000000  1.0000000 )       (  0.0000000 )


      isym =  6     inv. 180 deg rotation - cryst. axis [2,1,0]  

 cryst.   s( 6) = (    -1         -1          0      )    f =( -0.3333333 )
                  (     0          1          0      )       (  0.3333333 )
                  (     0          0          1      )       (  0.0000000 )

 cart.    s( 6) = ( -0.5000000 -0.8660254  0.0000000 )    f =( -0.5000000 )
                  ( -0.8660254  0.5000000  0.0000000 )       (  0.2886751 )
                  (  0.0000000  0.0000000  1.0000000 )       (  0.0000000 )


     point group C_3v (3m)  
     there are  3 classes
     the character table:

       E     2C3   3s_v 
A_1    1.00  1.00  1.00
A_2    1.00  1.00 -1.00
E      2.00 -1.00  0.00

     the symmetry operations in each class and the name of the first element:

     E        1
          identity                                               
     2C3      2    3
          120 deg rotation - cryst. axis [0,0,1]                 
     3s_v     4    6    5
          inv. 180 deg rotation - cart. axis [0,1,0]             

   Cartesian axes

     site n.     atom                  positions (alat units)
         1           Cr  tau(   1) = (   0.0000000   0.0000000   0.4846161  )
         2           Cr  tau(   2) = (   0.0000000   0.5773503   0.4846161  )
         3           I   tau(   3) = (  -0.1753225   0.8510331   0.7123856  )
         4           I   tau(   4) = (   0.3246775   0.5923426   0.7123856  )
         5           I   tau(   5) = (  -0.1493550   0.2886751   0.7123856  )
         6           I   tau(   6) = (  -0.3246775   0.5923426   0.2568467  )
         7           I   tau(   7) = (   0.1753225   0.8510331   0.2568467  )
         8           I   tau(   8) = (   0.1493550   0.2886751   0.2568467  )

   Crystallographic axes

     site n.     atom                  positions (cryst. coord.)
         1           Cr  tau(   1) = (  0.0000000  0.0000000  0.2515496  )
         2           Cr  tau(   2) = (  0.3333333  0.6666667  0.2515496  )
         3           I   tau(   3) = (  0.3160217  0.9826883  0.3697779  )
         4           I   tau(   4) = (  0.6666667  0.6839783  0.3697779  )
         5           I   tau(   5) = (  0.0173117  0.3333333  0.3697779  )
         6           I   tau(   6) = (  0.0173117  0.6839783  0.1333214  )
         7           I   tau(   7) = (  0.6666667  0.9826883  0.1333214  )
         8           I   tau(   8) = (  0.3160217  0.3333333  0.1333214  )

     number of k points=    10  Gaussian smearing, width (Ry)=  0.0050
                       cart. coord. in units 2pi/alat
        k(    1) = (   0.0000000   0.0000000   0.0000000), wk =   0.0156250
        k(    2) = (   0.0000000   0.1443376   0.0000000), wk =   0.0937500
        k(    3) = (   0.0000000   0.2886751   0.0000000), wk =   0.0937500
        k(    4) = (   0.0000000   0.4330127   0.0000000), wk =   0.0937500
        k(    5) = (   0.0000000  -0.5773503   0.0000000), wk =   0.0468750
        k(    6) = (   0.1250000   0.2165064   0.0000000), wk =   0.0937500
        k(    7) = (   0.1250000   0.3608439   0.0000000), wk =   0.1875000
        k(    8) = (   0.1250000   0.5051815   0.0000000), wk =   0.1875000
        k(    9) = (   0.2500000   0.4330127   0.0000000), wk =   0.0937500
        k(   10) = (   0.2500000   0.5773503   0.0000000), wk =   0.0937500

                       cryst. coord.
        k(    1) = (   0.0000000   0.0000000   0.0000000), wk =   0.0156250
        k(    2) = (   0.0000000   0.1250000   0.0000000), wk =   0.0937500
        k(    3) = (   0.0000000   0.2500000   0.0000000), wk =   0.0937500
        k(    4) = (   0.0000000   0.3750000   0.0000000), wk =   0.0937500
        k(    5) = (   0.0000000  -0.5000000   0.0000000), wk =   0.0468750
        k(    6) = (   0.1250000   0.1250000   0.0000000), wk =   0.0937500
        k(    7) = (   0.1250000   0.2500000   0.0000000), wk =   0.1875000
        k(    8) = (   0.1250000   0.3750000   0.0000000), wk =   0.1875000
        k(    9) = (   0.2500000   0.2500000   0.0000000), wk =   0.0937500
        k(   10) = (   0.2500000   0.3750000   0.0000000), wk =   0.0937500

     Dense  grid:   174251 G-vectors     FFT dimensions: (  60,  60, 120)

     Dynamical RAM for                 wfc:       0.58 MB

     Dynamical RAM for     wfc (w. buffer):      12.19 MB

     Dynamical RAM for           str. fact:       0.22 MB

     Dynamical RAM for           local pot:       0.00 MB

     Dynamical RAM for          nlocal pot:       1.99 MB

     Dynamical RAM for                qrad:       2.27 MB

     Dynamical RAM for          rho,v,vnew:       1.49 MB

     Dynamical RAM for               rhoin:       0.50 MB

     Dynamical RAM for            rho*nmix:       3.55 MB

     Dynamical RAM for           G-vectors:       0.47 MB

     Dynamical RAM for          h,s,v(r/c):       0.02 MB

     Dynamical RAM for          <psi|beta>:       0.09 MB

     Dynamical RAM for                 psi:       1.16 MB

     Dynamical RAM for                hpsi:       1.16 MB

     Dynamical RAM for      wfcinit/wfcrot:       1.26 MB

     Estimated static dynamical RAM per process >      20.29 MB

     Estimated max dynamical RAM per process >      26.27 MB

     Estimated total dynamical RAM >     630.48 MB
 ----2D----2D----2D----2D----2D----2D----2D----2D----2D----2D----2D----2D
  The code is running with the 2D cutoff
  Please refer to:
  Sohier, T., Calandra, M., & Mauri, F. (2017), 
  Density functional perturbation theory for gated two-dimensional heterostructu
 res:
  Theoretical developments and application to flexural phonons in graphene.
  Physical Review B, 96(7), 75448. https://doi.org/10.1103/PhysRevB.96.075448
 ----2D----2D----2D----2D----2D----2D----2D----2D----2D----2D----2D----2D

     Check: negative core charge=   -0.000023
     Generating pointlists ...
     new r_m :   0.1637 (alat units)  2.1245 (a.u.) for type    1
     new r_m :   0.1637 (alat units)  2.1245 (a.u.) for type    2

     Initial potential from superposition of free atoms

     starting charge      69.9974, renormalised to      70.0000

     negative rho (up, down):  2.423E-03 2.534E-08
     Starting wfcs are   44 randomized atomic wfcs

     total cpu time spent up to now is        1.4 secs

     Self-consistent Calculation

     iteration #  1     ecut=    50.00 Ry     beta= 0.70
     Davidson diagonalization with overlap

---- Real-time Memory Report at c_bands before calling an iterative solver
           156 MiB given to the printing process from OS
             0 MiB allocation reported by mallinfo(arena+hblkhd)
        119602 MiB available memory on the node where the printing process lives
------------------
     c_bands:  5 eigenvalues not converged
     c_bands:  5 eigenvalues not converged
     c_bands:  3 eigenvalues not converged
     c_bands:  5 eigenvalues not converged
     c_bands:  5 eigenvalues not converged
     c_bands:  2 eigenvalues not converged
     c_bands:  3 eigenvalues not converged
     ethr =  5.00E-06,  avg # of iterations = 17.4

     negative rho (up, down):  6.529E-04 0.000E+00

     total cpu time spent up to now is        8.2 secs

     total energy              =    -510.53192372 Ry
     estimated scf accuracy    <       5.53136842 Ry

     total magnetization       =     6.00 Bohr mag/cell
     absolute magnetization    =     9.95 Bohr mag/cell

     iteration #  2     ecut=    50.00 Ry     beta= 0.70
     Davidson diagonalization with overlap

---- Real-time Memory Report at c_bands before calling an iterative solver
           167 MiB given to the printing process from OS
             0 MiB allocation reported by mallinfo(arena+hblkhd)
        119470 MiB available memory on the node where the printing process lives
------------------
     ethr =  7.90E-03,  avg # of iterations =  5.8

     negative rho (up, down):  3.950E-04 0.000E+00

     total cpu time spent up to now is       10.6 secs

     total energy              =    -508.99611550 Ry
     estimated scf accuracy    <       6.15862367 Ry

     total magnetization       =     6.17 Bohr mag/cell
     absolute magnetization    =     8.91 Bohr mag/cell

     iteration #  3     ecut=    50.00 Ry     beta= 0.70
     Davidson diagonalization with overlap

---- Real-time Memory Report at c_bands before calling an iterative solver
           168 MiB given to the printing process from OS
             0 MiB allocation reported by mallinfo(arena+hblkhd)
        119455 MiB available memory on the node where the printing process lives
------------------
     ethr =  7.90E-03,  avg # of iterations =  4.5

     negative rho (up, down):  5.143E-07 0.000E+00

     total cpu time spent up to now is       12.8 secs

     total energy              =    -511.12509344 Ry
     estimated scf accuracy    <       6.40840914 Ry

     total magnetization       =     6.00 Bohr mag/cell
     absolute magnetization    =     6.40 Bohr mag/cell

     iteration #  4     ecut=    50.00 Ry     beta= 0.70
     Davidson diagonalization with overlap

---- Real-time Memory Report at c_bands before calling an iterative solver
           169 MiB given to the printing process from OS
             0 MiB allocation reported by mallinfo(arena+hblkhd)
        119444 MiB available memory on the node where the printing process lives
------------------
     ethr =  7.90E-03,  avg # of iterations =  4.7

     negative rho (up, down):  4.827E-06 0.000E+00

     total cpu time spent up to now is       14.9 secs

     total energy              =    -511.41626312 Ry
     estimated scf accuracy    <       0.76338356 Ry

     total magnetization       =     6.00 Bohr mag/cell
     absolute magnetization    =     6.72 Bohr mag/cell

     iteration #  5     ecut=    50.00 Ry     beta= 0.70
     Davidson diagonalization with overlap

---- Real-time Memory Report at c_bands before calling an iterative solver
           169 MiB given to the printing process from OS
             0 MiB allocation reported by mallinfo(arena+hblkhd)
        119433 MiB available memory on the node where the printing process lives
------------------
     ethr =  1.09E-03,  avg # of iterations =  5.8

     negative rho (up, down):  5.964E-07 0.000E+00

     total cpu time spent up to now is       17.1 secs

     total energy              =    -511.49398451 Ry
     estimated scf accuracy    <       0.07267968 Ry

     total magnetization       =     6.00 Bohr mag/cell
     absolute magnetization    =     6.93 Bohr mag/cell

     iteration #  6     ecut=    50.00 Ry     beta= 0.70
     Davidson diagonalization with overlap

---- Real-time Memory Report at c_bands before calling an iterative solver
           170 MiB given to the printing process from OS
             0 MiB allocation reported by mallinfo(arena+hblkhd)
        119423 MiB available memory on the node where the printing process lives
------------------
     ethr =  1.04E-04,  avg # of iterations =  4.5

     total cpu time spent up to now is       19.2 secs

     total energy              =    -511.50375168 Ry
     estimated scf accuracy    <       0.01088532 Ry

     total magnetization       =     6.00 Bohr mag/cell
     absolute magnetization    =     7.01 Bohr mag/cell

     iteration #  7     ecut=    50.00 Ry     beta= 0.70
     Davidson diagonalization with overlap

---- Real-time Memory Report at c_bands before calling an iterative solver
           170 MiB given to the printing process from OS
             0 MiB allocation reported by mallinfo(arena+hblkhd)
        119411 MiB available memory on the node where the printing process lives
------------------
     ethr =  1.56E-05,  avg # of iterations =  3.2

     total cpu time spent up to now is       21.0 secs

     total energy              =    -511.50385186 Ry
     estimated scf accuracy    <       0.00349217 Ry

     total magnetization       =     6.00 Bohr mag/cell
     absolute magnetization    =     7.02 Bohr mag/cell

     iteration #  8     ecut=    50.00 Ry     beta= 0.70
     Davidson diagonalization with overlap

---- Real-time Memory Report at c_bands before calling an iterative solver
           171 MiB given to the printing process from OS
             0 MiB allocation reported by mallinfo(arena+hblkhd)
        119400 MiB available memory on the node where the printing process lives
------------------
     ethr =  4.99E-06,  avg # of iterations =  2.8

     total cpu time spent up to now is       22.8 secs

     total energy              =    -511.50413984 Ry
     estimated scf accuracy    <       0.00028274 Ry

     total magnetization       =     6.00 Bohr mag/cell
     absolute magnetization    =     7.04 Bohr mag/cell

     iteration #  9     ecut=    50.00 Ry     beta= 0.70
     Davidson diagonalization with overlap

---- Real-time Memory Report at c_bands before calling an iterative solver
           171 MiB given to the printing process from OS
             0 MiB allocation reported by mallinfo(arena+hblkhd)
        119390 MiB available memory on the node where the printing process lives
------------------
     ethr =  4.04E-07,  avg # of iterations =  4.0

     total cpu time spent up to now is       25.2 secs

     total energy              =    -511.50419087 Ry
     estimated scf accuracy    <       0.00009971 Ry

     total magnetization       =     6.00 Bohr mag/cell
     absolute magnetization    =     7.05 Bohr mag/cell

     iteration # 10     ecut=    50.00 Ry     beta= 0.70
     Davidson diagonalization with overlap

---- Real-time Memory Report at c_bands before calling an iterative solver
           171 MiB given to the printing process from OS
             0 MiB allocation reported by mallinfo(arena+hblkhd)
        117561 MiB available memory on the node where the printing process lives
------------------
     ethr =  1.42E-07,  avg # of iterations =  2.6

     total cpu time spent up to now is       27.8 secs

     total energy              =    -511.50421110 Ry
     estimated scf accuracy    <       0.00003660 Ry

     total magnetization       =     6.00 Bohr mag/cell
     absolute magnetization    =     7.05 Bohr mag/cell

     iteration # 11     ecut=    50.00 Ry     beta= 0.70
     Davidson diagonalization with overlap

---- Real-time Memory Report at c_bands before calling an iterative solver
           171 MiB given to the printing process from OS
             0 MiB allocation reported by mallinfo(arena+hblkhd)
        116494 MiB available memory on the node where the printing process lives
------------------
     ethr =  5.23E-08,  avg # of iterations =  2.0

     total cpu time spent up to now is       30.5 secs

     total energy              =    -511.50421304 Ry
     estimated scf accuracy    <       0.00001121 Ry

     total magnetization       =     6.00 Bohr mag/cell
     absolute magnetization    =     7.05 Bohr mag/cell

     iteration # 12     ecut=    50.00 Ry     beta= 0.70
     Davidson diagonalization with overlap

---- Real-time Memory Report at c_bands before calling an iterative solver
           171 MiB given to the printing process from OS
             0 MiB allocation reported by mallinfo(arena+hblkhd)
        115627 MiB available memory on the node where the printing process lives
------------------
     ethr =  1.60E-08,  avg # of iterations =  2.0

     total cpu time spent up to now is       33.0 secs

     total energy              =    -511.50421392 Ry
     estimated scf accuracy    <       0.00000038 Ry

     total magnetization       =     6.00 Bohr mag/cell
     absolute magnetization    =     7.05 Bohr mag/cell

     iteration # 13     ecut=    50.00 Ry     beta= 0.70
     Davidson diagonalization with overlap

---- Real-time Memory Report at c_bands before calling an iterative solver
           171 MiB given to the printing process from OS
             0 MiB allocation reported by mallinfo(arena+hblkhd)
        115624 MiB available memory on the node where the printing process lives
------------------
     ethr =  5.40E-10,  avg # of iterations =  4.0

     total cpu time spent up to now is       36.2 secs

     total energy              =    -511.50421397 Ry
     estimated scf accuracy    <       0.00000003 Ry

     total magnetization       =     6.00 Bohr mag/cell
     absolute magnetization    =     7.05 Bohr mag/cell

     iteration # 14     ecut=    50.00 Ry     beta= 0.70
     Davidson diagonalization with overlap

---- Real-time Memory Report at c_bands before calling an iterative solver
           171 MiB given to the printing process from OS
             0 MiB allocation reported by mallinfo(arena+hblkhd)
        115613 MiB available memory on the node where the printing process lives
------------------
     ethr =  4.76E-11,  avg # of iterations =  3.5

     total cpu time spent up to now is       39.6 secs

     total energy              =    -511.50421398 Ry
     estimated scf accuracy    <          2.3E-09 Ry

     total magnetization       =     6.00 Bohr mag/cell
     absolute magnetization    =     7.05 Bohr mag/cell

     iteration # 15     ecut=    50.00 Ry     beta= 0.70
     Davidson diagonalization with overlap

---- Real-time Memory Report at c_bands before calling an iterative solver
           171 MiB given to the printing process from OS
             0 MiB allocation reported by mallinfo(arena+hblkhd)
        115574 MiB available memory on the node where the printing process lives
------------------
     ethr =  3.29E-12,  avg # of iterations =  4.0

     total cpu time spent up to now is       42.8 secs

     total energy              =    -511.50421398 Ry
     estimated scf accuracy    <          2.9E-10 Ry

     total magnetization       =     6.00 Bohr mag/cell
     absolute magnetization    =     7.05 Bohr mag/cell

     iteration # 16     ecut=    50.00 Ry     beta= 0.70
     Davidson diagonalization with overlap

---- Real-time Memory Report at c_bands before calling an iterative solver
           171 MiB given to the printing process from OS
             0 MiB allocation reported by mallinfo(arena+hblkhd)
        112559 MiB available memory on the node where the printing process lives
------------------
     ethr =  4.08E-13,  avg # of iterations =  2.8

     total cpu time spent up to now is       45.8 secs

     total energy              =    -511.50421398 Ry
     estimated scf accuracy    <          2.8E-11 Ry

     total magnetization       =     6.00 Bohr mag/cell
     absolute magnetization    =     7.05 Bohr mag/cell

     iteration # 17     ecut=    50.00 Ry     beta= 0.70
     Davidson diagonalization with overlap

---- Real-time Memory Report at c_bands before calling an iterative solver
           171 MiB given to the printing process from OS
             0 MiB allocation reported by mallinfo(arena+hblkhd)
        111604 MiB available memory on the node where the printing process lives
------------------
     ethr =  1.00E-13,  avg # of iterations =  1.9

     total cpu time spent up to now is       48.2 secs

     total energy              =    -511.50421398 Ry
     estimated scf accuracy    <          4.7E-12 Ry

     total magnetization       =     6.00 Bohr mag/cell
     absolute magnetization    =     7.05 Bohr mag/cell

     iteration # 18     ecut=    50.00 Ry     beta= 0.70
     Davidson diagonalization with overlap

---- Real-time Memory Report at c_bands before calling an iterative solver
           171 MiB given to the printing process from OS
             0 MiB allocation reported by mallinfo(arena+hblkhd)
        111051 MiB available memory on the node where the printing process lives
------------------
     ethr =  1.00E-13,  avg # of iterations =  1.0

     total cpu time spent up to now is       50.3 secs

     total energy              =    -511.50421398 Ry
     estimated scf accuracy    <          5.9E-13 Ry

     total magnetization       =     6.00 Bohr mag/cell
     absolute magnetization    =     7.05 Bohr mag/cell

     iteration # 19     ecut=    50.00 Ry     beta= 0.70
     Davidson diagonalization with overlap

---- Real-time Memory Report at c_bands before calling an iterative solver
           171 MiB given to the printing process from OS
             0 MiB allocation reported by mallinfo(arena+hblkhd)
        111056 MiB available memory on the node where the printing process lives
------------------
     ethr =  1.00E-13,  avg # of iterations =  1.0

     total cpu time spent up to now is       52.4 secs

     total energy              =    -511.50421398 Ry
     estimated scf accuracy    <          2.5E-13 Ry

     total magnetization       =     6.00 Bohr mag/cell
     absolute magnetization    =     7.05 Bohr mag/cell

     iteration # 20     ecut=    50.00 Ry     beta= 0.70
     Davidson diagonalization with overlap

---- Real-time Memory Report at c_bands before calling an iterative solver
           171 MiB given to the printing process from OS
             0 MiB allocation reported by mallinfo(arena+hblkhd)
        111153 MiB available memory on the node where the printing process lives
------------------
     ethr =  1.00E-13,  avg # of iterations =  1.0
 
     Magnetic moment per site  (integrated on atomic sphere of radius R)
     atom   1 (R=0.164)  charge= 12.4102  magn=  2.8922
     atom   2 (R=0.164)  charge= 12.4102  magn=  2.8922
     atom   3 (R=0.164)  charge=  4.1199  magn= -0.0468
     atom   4 (R=0.164)  charge=  4.1199  magn= -0.0468
     atom   5 (R=0.164)  charge=  4.1199  magn= -0.0468
     atom   6 (R=0.164)  charge=  4.1209  magn= -0.0468
     atom   7 (R=0.164)  charge=  4.1209  magn= -0.0468
     atom   8 (R=0.164)  charge=  4.1209  magn= -0.0468

     total cpu time spent up to now is       54.5 secs

     End of self-consistent calculation

 ------ SPIN UP ------------


          k = 0.0000 0.0000 0.0000 ( 21831 PWs)   bands (ev):

   -78.5051 -78.5005 -50.1923 -50.1914 -50.1810 -50.1810 -50.1800 -50.1800
   -18.4924 -17.7443 -17.4410 -17.4410 -17.3457 -17.3457 -10.1415  -9.6254
    -9.0753  -9.0753  -9.0230  -9.0230  -8.7153  -8.2785  -8.2785  -8.2381
    -7.8287  -7.8287  -7.3962  -6.6777  -6.6777  -6.6555  -6.3832  -6.1180
    -6.1180  -6.0583  -5.9876  -5.9876  -5.5873  -5.5873  -4.3344  -4.3344
    -3.9190  -3.9190

     occupation numbers 
     1.0000   1.0000   1.0000   1.0000   1.0000   1.0000   1.0000   1.0000
     1.0000   1.0000   1.0000   1.0000   1.0000   1.0000   1.0000   1.0000
     1.0000   1.0000   1.0000   1.0000   1.0000   1.0000   1.0000   1.0000
     1.0000   1.0000   1.0000   1.0000   1.0000   1.0000   1.0000   1.0000
     1.0000   1.0000   1.0000   1.0000   1.0000   1.0000   0.0000   0.0000
     0.0000   0.0000

          k = 0.0000 0.1443 0.0000 ( 21773 PWs)   bands (ev):

   -78.5028 -78.4993 -50.1915 -50.1906 -50.1800 -50.1793 -50.1793 -50.1789
   -18.4592 -17.7255 -17.4873 -17.4595 -17.3494 -17.3482 -10.1385  -9.6189
    -9.1007  -9.0877  -9.0668  -8.9631  -8.6117  -8.3215  -8.2826  -8.0571
    -7.8401  -7.7513  -7.3598  -6.8252  -6.7706  -6.5005  -6.4256  -6.2993
    -6.1888  -6.0011  -5.9422  -5.9292  -5.6279  -5.5559  -4.3259  -4.3114
    -4.0356  -3.9385

     occupation numbers 
     1.0000   1.0000   1.0000   1.0000   1.0000   1.0000   1.0000   1.0000
     1.0000   1.0000   1.0000   1.0000   1.0000   1.0000   1.0000   1.0000
     1.0000   1.0000   1.0000   1.0000   1.0000   1.0000   1.0000   1.0000
     1.0000   1.0000   1.0000   1.0000   1.0000   1.0000   1.0000   1.0000
     1.0000   1.0000   1.0000   1.0000   1.0000   1.0000   0.0000   0.0000
     0.0000   0.0000

          k = 0.0000 0.2887 0.0000 ( 21759 PWs)   bands (ev):

   -78.5019 -78.4993 -50.1916 -50.1906 -50.1796 -50.1789 -50.1789 -50.1783
   -18.3640 -17.6727 -17.6093 -17.4963 -17.3697 -17.3638 -10.1205  -9.5967
    -9.1789  -9.1205  -9.0465  -8.7303  -8.4992  -8.3715  -8.3032  -7.8946
    -7.6815  -7.5728  -7.3380  -7.0062  -6.9651  -6.8029  -6.3484  -6.3017
    -6.2595  -5.9617  -5.9229  -5.9176  -5.6853  -5.5205  -4.3204  -4.2667
    -4.1957  -4.0240

     occupation numbers 
     1.0000   1.0000   1.0000   1.0000   1.0000   1.0000   1.0000   1.0000
     1.0000   1.0000   1.0000   1.0000   1.0000   1.0000   1.0000   1.0000
     1.0000   1.0000   1.0000   1.0000   1.0000   1.0000   1.0000   1.0000
     1.0000   1.0000   1.0000   1.0000   1.0000   1.0000   1.0000   1.0000
     1.0000   1.0000   1.0000   1.0000   1.0000   1.0000   0.0000   0.0000
     0.0000   0.0000

          k = 0.0000 0.4330 0.0000 ( 21736 PWs)   bands (ev):

   -78.5007 -78.4990 -50.1911 -50.1909 -50.1794 -50.1783 -50.1782 -50.1773
   -18.2236 -17.7740 -17.5971 -17.5273 -17.4202 -17.3806 -10.1119  -9.5184
    -9.2426  -9.0656  -8.8803  -8.6493  -8.5829  -8.2936  -8.1742  -7.9739
    -7.6625  -7.4932  -7.4212  -7.1506  -6.9439  -6.8469  -6.3628  -6.3575
    -6.2379  -5.9586  -5.9318  -5.8998  -5.7132  -5.5160  -4.3036  -4.2379
    -4.1630  -4.1445

     occupation numbers 
     1.0000   1.0000   1.0000   1.0000   1.0000   1.0000   1.0000   1.0000
     1.0000   1.0000   1.0000   1.0000   1.0000   1.0000   1.0000   1.0000
     1.0000   1.0000   1.0000   1.0000   1.0000   1.0000   1.0000   1.0000
     1.0000   1.0000   1.0000   1.0000   1.0000   1.0000   1.0000   1.0000
     1.0000   1.0000   1.0000   1.0000   1.0000   1.0000   0.0000   0.0000
     0.0000   0.0000

          k = 0.0000-0.5774 0.0000 ( 21764 PWs)   bands (ev):

   -78.5020 -78.4993 -50.1926 -50.1916 -50.1791 -50.1788 -50.1786 -50.1770
   -18.1169 -17.8908 -17.5391 -17.5357 -17.4725 -17.3876 -10.1153  -9.4574
    -9.2667  -8.9918  -8.7654  -8.7029  -8.6040  -8.2411  -8.0980  -8.0253
    -7.8612  -7.6535  -7.3878  -7.0032  -6.8458  -6.7980  -6.4411  -6.4321
    -6.2374  -5.9946  -5.9259  -5.8498  -5.7249  -5.5318  -4.2852  -4.2499
    -4.2151  -4.0926

     occupation numbers 
     1.0000   1.0000   1.0000   1.0000   1.0000   1.0000   1.0000   1.0000
     1.0000   1.0000   1.0000   1.0000   1.0000   1.0000   1.0000   1.0000
     1.0000   1.0000   1.0000   1.0000   1.0000   1.0000   1.0000   1.0000
     1.0000   1.0000   1.0000   1.0000   1.0000   1.0000   1.0000   1.0000
     1.0000   1.0000   1.0000   1.0000   1.0000   1.0000   0.0000   0.0000
     0.0000   0.0000

          k = 0.1250 0.2165 0.0000 ( 21799 PWs)   bands (ev):

   -78.5021 -78.5014 -50.1916 -50.1914 -50.1806 -50.1803 -50.1792 -50.1790
   -18.3950 -17.6898 -17.5627 -17.4970 -17.3623 -17.3559 -10.1169  -9.6151
    -9.1493  -9.1479  -9.0597  -8.7872  -8.4821  -8.4243  -8.2681  -7.8851
    -7.7805  -7.6338  -7.3499  -6.9749  -6.8603  -6.6481  -6.4657  -6.3837
    -6.1709  -5.9855  -5.9389  -5.8930  -5.6713  -5.5298  -4.3439  -4.2807
    -4.1872  -3.9659

     occupation numbers 
     1.0000   1.0000   1.0000   1.0000   1.0000   1.0000   1.0000   1.0000
     1.0000   1.0000   1.0000   1.0000   1.0000   1.0000   1.0000   1.0000
     1.0000   1.0000   1.0000   1.0000   1.0000   1.0000   1.0000   1.0000
     1.0000   1.0000   1.0000   1.0000   1.0000   1.0000   1.0000   1.0000
     1.0000   1.0000   1.0000   1.0000   1.0000   1.0000   0.0000   0.0000
     0.0000   0.0000

          k = 0.1250 0.3608 0.0000 ( 21770 PWs)   bands (ev):

   -78.5020 -78.4998 -50.1917 -50.1906 -50.1800 -50.1795 -50.1787 -50.1784
   -18.2757 -17.6968 -17.6254 -17.5437 -17.3954 -17.3727 -10.0646  -9.5909
    -9.1977  -9.1411  -8.9734  -8.6073  -8.5975  -8.3658  -8.1329  -7.9437
    -7.6651  -7.4932  -7.3887  -7.0686  -6.9721  -6.8313  -6.5305  -6.3505
    -6.1638  -5.9790  -5.9189  -5.8580  -5.7046  -5.5212  -4.3414  -4.2542
    -4.2007  -4.0368

     occupation numbers 
     1.0000   1.0000   1.0000   1.0000   1.0000   1.0000   1.0000   1.0000
     1.0000   1.0000   1.0000   1.0000   1.0000   1.0000   1.0000   1.0000
     1.0000   1.0000   1.0000   1.0000   1.0000   1.0000   1.0000   1.0000
     1.0000   1.0000   1.0000   1.0000   1.0000   1.0000   1.0000   1.0000
     1.0000   1.0000   1.0000   1.0000   1.0000   1.0000   0.0000   0.0000
     0.0000   0.0000

          k = 0.1250 0.5052 0.0000 ( 21769 PWs)   bands (ev):

   -78.5014 -78.5002 -50.1912 -50.1910 -50.1800 -50.1795 -50.1788 -50.1780
   -18.1318 -17.8533 -17.5714 -17.5495 -17.4509 -17.3866 -10.0380  -9.5065
    -9.2319  -9.0589  -8.7973  -8.7627  -8.5860  -8.3133  -8.1887  -7.8962
    -7.8313  -7.4443  -7.3928  -7.0895  -6.8657  -6.7803  -6.5623  -6.4743
    -6.1873  -5.9710  -5.8864  -5.8283  -5.7258  -5.5393  -4.2739  -4.2621
    -4.1674  -4.0739

     occupation numbers 
     1.0000   1.0000   1.0000   1.0000   1.0000   1.0000   1.0000   1.0000
     1.0000   1.0000   1.0000   1.0000   1.0000   1.0000   1.0000   1.0000
     1.0000   1.0000   1.0000   1.0000   1.0000   1.0000   1.0000   1.0000
     1.0000   1.0000   1.0000   1.0000   1.0000   1.0000   1.0000   1.0000
     1.0000   1.0000   1.0000   1.0000   1.0000   1.0000   0.0000   0.0000
     0.0000   0.0000

          k = 0.2500 0.4330 0.0000 ( 21735 PWs)   bands (ev):

   -78.5009 -78.4987 -50.1910 -50.1902 -50.1790 -50.1787 -50.1784 -50.1779
   -18.1442 -17.8109 -17.6095 -17.5591 -17.4299 -17.3902  -9.9207  -9.6022
    -9.1699  -9.1471  -8.8548  -8.7910  -8.5771  -8.3252  -8.2016  -7.9002
    -7.7576  -7.4277  -7.2672  -6.9897  -6.9363  -6.8906  -6.6289  -6.5151
    -6.1544  -5.9502  -5.8249  -5.8132  -5.7211  -5.5492  -4.2830  -4.2534
    -4.1425  -4.0132

     occupation numbers 
     1.0000   1.0000   1.0000   1.0000   1.0000   1.0000   1.0000   1.0000
     1.0000   1.0000   1.0000   1.0000   1.0000   1.0000   1.0000   1.0000
     1.0000   1.0000   1.0000   1.0000   1.0000   1.0000   1.0000   1.0000
     1.0000   1.0000   1.0000   1.0000   1.0000   1.0000   1.0000   1.0000
     1.0000   1.0000   1.0000   1.0000   1.0000   1.0000   0.0000   0.0000
     0.0000   0.0000

          k = 0.2500 0.5774 0.0000 ( 21742 PWs)   bands (ev):

   -78.5008 -78.4991 -50.1914 -50.1905 -50.1792 -50.1790 -50.1780 -50.1776
   -18.0314 -17.9163 -17.6366 -17.5044 -17.4685 -17.4012  -9.8334  -9.5881
    -9.1794  -9.0819  -8.9666  -8.6666  -8.6298  -8.4613  -8.2975  -7.9380
    -7.4626  -7.3958  -7.2406  -7.2125  -6.9267  -6.7443  -6.6779  -6.5906
    -6.1640  -5.9444  -5.8093  -5.7718  -5.6960  -5.5910  -4.2743  -4.1932
    -4.1582  -3.9797

     occupation numbers 
     1.0000   1.0000   1.0000   1.0000   1.0000   1.0000   1.0000   1.0000
     1.0000   1.0000   1.0000   1.0000   1.0000   1.0000   1.0000   1.0000
     1.0000   1.0000   1.0000   1.0000   1.0000   1.0000   1.0000   1.0000
     1.0000   1.0000   1.0000   1.0000   1.0000   1.0000   1.0000   1.0000
     1.0000   1.0000   1.0000   1.0000   1.0000   1.0000   0.0000   0.0000
     0.0000   0.0000

 ------ SPIN DOWN ----------


          k = 0.0000 0.0000 0.0000 ( 21831 PWs)   bands (ev):

   -75.7128 -75.7082 -47.3856 -47.3845 -47.3525 -47.3525 -47.3518 -47.3518
   -18.4685 -17.7588 -17.4513 -17.4513 -17.3561 -17.3561  -9.8733  -9.3979
    -8.9052  -8.9052  -8.7525  -8.7525  -8.6272  -8.0357  -7.6545  -7.6545
    -7.3561  -7.3561  -7.3504  -6.6582  -6.3120  -6.3120  -5.7758  -5.7758
    -3.7752  -3.7746  -3.7746  -3.7100  -3.4136  -3.4136  -2.8451  -2.8451
    -2.5907  -2.5907

     occupation numbers 
     1.0000   1.0000   1.0000   1.0000   1.0000   1.0000   1.0000   1.0000
     1.0000   1.0000   1.0000   1.0000   1.0000   1.0000   1.0000   1.0000
     1.0000   1.0000   1.0000   1.0000   1.0000   1.0000   1.0000   1.0000
     1.0000   1.0000   1.0000   1.0000   1.0000   1.0000   1.0000   1.0000
     0.0000   0.0000   0.0000   0.0000   0.0000   0.0000   0.0000   0.0000
     0.0000   0.0000

          k = 0.0000 0.1443 0.0000 ( 21773 PWs)   bands (ev):

   -75.7106 -75.7070 -47.3848 -47.3836 -47.3517 -47.3508 -47.3507 -47.3505
   -18.4360 -17.7398 -17.4961 -17.4700 -17.3593 -17.3585  -9.8794  -9.3920
    -8.9341  -8.9228  -8.8061  -8.7762  -8.3659  -7.8400  -7.7361  -7.6799
    -7.3761  -7.3312  -7.2707  -6.6670  -6.3539  -6.3061  -6.0517  -5.8469
    -3.8281  -3.7192  -3.7019  -3.6259  -3.4251  -3.4251  -2.8455  -2.8370
    -2.6661  -2.5998

     occupation numbers 
     1.0000   1.0000   1.0000   1.0000   1.0000   1.0000   1.0000   1.0000
     1.0000   1.0000   1.0000   1.0000   1.0000   1.0000   1.0000   1.0000
     1.0000   1.0000   1.0000   1.0000   1.0000   1.0000   1.0000   1.0000
     1.0000   1.0000   1.0000   1.0000   1.0000   1.0000   1.0000   1.0000
     0.0000   0.0000   0.0000   0.0000   0.0000   0.0000   0.0000   0.0000
     0.0000   0.0000

          k = 0.0000 0.2887 0.0000 ( 21759 PWs)   bands (ev):

   -75.7097 -75.7070 -47.3849 -47.3836 -47.3513 -47.3506 -47.3504 -47.3496
   -18.3430 -17.6867 -17.6139 -17.5074 -17.3801 -17.3727  -9.8771  -9.3683
    -9.0644  -8.9396  -8.7871  -8.5096  -8.0176  -7.9500  -7.7516  -7.4318
    -7.4219  -7.3060  -7.0997  -6.7133  -6.6865  -6.3939  -6.2943  -5.9886
    -3.8669  -3.7463  -3.6246  -3.5027  -3.4572  -3.4178  -2.8691  -2.8604
    -2.7251  -2.6407

     occupation numbers 
     1.0000   1.0000   1.0000   1.0000   1.0000   1.0000   1.0000   1.0000
     1.0000   1.0000   1.0000   1.0000   1.0000   1.0000   1.0000   1.0000
     1.0000   1.0000   1.0000   1.0000   1.0000   1.0000   1.0000   1.0000
     1.0000   1.0000   1.0000   1.0000   1.0000   1.0000   1.0000   1.0000
     0.0000   0.0000   0.0000   0.0000   0.0000   0.0000   0.0000   0.0000
     0.0000   0.0000

          k = 0.0000 0.4330 0.0000 ( 21736 PWs)   bands (ev):

   -75.7085 -75.7067 -47.3842 -47.3840 -47.3512 -47.3498 -47.3496 -47.3486
   -18.2057 -17.7735 -17.6106 -17.5387 -17.4310 -17.3885  -9.8791  -9.2877
    -9.1488  -8.8301  -8.6300  -8.2886  -8.2603  -7.7944  -7.6767  -7.5084
    -7.3351  -7.3104  -7.0013  -6.9675  -6.7651  -6.4878  -6.2945  -6.0340
    -3.9101  -3.8707  -3.5792  -3.4775  -3.4629  -3.3495  -2.9048  -2.8170
    -2.7061  -2.6693

     occupation numbers 
     1.0000   1.0000   1.0000   1.0000   1.0000   1.0000   1.0000   1.0000
     1.0000   1.0000   1.0000   1.0000   1.0000   1.0000   1.0000   1.0000
     1.0000   1.0000   1.0000   1.0000   1.0000   1.0000   1.0000   1.0000
     1.0000   1.0000   1.0000   1.0000   1.0000   1.0000   1.0000   1.0000
     0.0000   0.0000   0.0000   0.0000   0.0000   0.0000   0.0000   0.0000
     0.0000   0.0000

          k = 0.0000-0.5774 0.0000 ( 21764 PWs)   bands (ev):

   -75.7097 -75.7070 -47.3860 -47.3848 -47.3506 -47.3503 -47.3503 -47.3483
   -18.1003 -17.8880 -17.5508 -17.5493 -17.4830 -17.3952  -9.8856  -9.2258
    -9.1787  -8.6417  -8.5235  -8.5029  -8.1672  -7.8657  -7.6847  -7.4961
    -7.4893  -7.3177  -7.0202  -6.7850  -6.7458  -6.5503  -6.3393  -5.9965
    -3.9483  -3.9396  -3.5791  -3.4906  -3.4533  -3.3237  -2.9313  -2.7989
    -2.6725  -2.6720

     occupation numbers 
     1.0000   1.0000   1.0000   1.0000   1.0000   1.0000   1.0000   1.0000
     1.0000   1.0000   1.0000   1.0000   1.0000   1.0000   1.0000   1.0000
     1.0000   1.0000   1.0000   1.0000   1.0000   1.0000   1.0000   1.0000
     1.0000   1.0000   1.0000   1.0000   1.0000   1.0000   1.0000   1.0000
     0.0000   0.0000   0.0000   0.0000   0.0000   0.0000   0.0000   0.0000
     0.0000   0.0000

          k = 0.1250 0.2165 0.0000 ( 21799 PWs)   bands (ev):

   -75.7099 -75.7091 -47.3847 -47.3846 -47.3525 -47.3522 -47.3506 -47.3504
   -18.3733 -17.7039 -17.5685 -17.5078 -17.3725 -17.3654  -9.8688  -9.3879
    -9.0148  -8.9747  -8.8124  -8.5729  -8.1040  -7.8941  -7.7159  -7.5478
    -7.4479  -7.2699  -7.1636  -6.7328  -6.4301  -6.4050  -6.2883  -5.9720
    -3.8233  -3.7853  -3.6169  -3.5472  -3.4467  -3.4409  -2.9041  -2.8197
    -2.7354  -2.6196

     occupation numbers 
     1.0000   1.0000   1.0000   1.0000   1.0000   1.0000   1.0000   1.0000
     1.0000   1.0000   1.0000   1.0000   1.0000   1.0000   1.0000   1.0000
     1.0000   1.0000   1.0000   1.0000   1.0000   1.0000   1.0000   1.0000
     1.0000   1.0000   1.0000   1.0000   1.0000   1.0000   1.0000   1.0000
     0.0000   0.0000   0.0000   0.0000   0.0000   0.0000   0.0000   0.0000
     0.0000   0.0000

          k = 0.1250 0.3608 0.0000 ( 21770 PWs)   bands (ev):

   -75.7097 -75.7075 -47.3850 -47.3836 -47.3518 -47.3509 -47.3502 -47.3500
   -18.2567 -17.6977 -17.6391 -17.5546 -17.4060 -17.3814  -9.8280  -9.3614
    -9.0807  -8.9532  -8.7213  -8.3280  -8.1688  -7.7881  -7.7277  -7.5473
    -7.2553  -7.2237  -7.1528  -6.9635  -6.5995  -6.4480  -6.2927  -6.1031
    -3.8745  -3.8219  -3.6209  -3.5188  -3.4231  -3.3854  -2.9203  -2.7908
    -2.7310  -2.6524

     occupation numbers 
     1.0000   1.0000   1.0000   1.0000   1.0000   1.0000   1.0000   1.0000
     1.0000   1.0000   1.0000   1.0000   1.0000   1.0000   1.0000   1.0000
     1.0000   1.0000   1.0000   1.0000   1.0000   1.0000   1.0000   1.0000
     1.0000   1.0000   1.0000   1.0000   1.0000   1.0000   1.0000   1.0000
     0.0000   0.0000   0.0000   0.0000   0.0000   0.0000   0.0000   0.0000
     0.0000   0.0000

          k = 0.1250 0.5052 0.0000 ( 21769 PWs)   bands (ev):

   -75.7091 -75.7079 -47.3844 -47.3841 -47.3519 -47.3509 -47.3504 -47.3493
   -18.1157 -17.8499 -17.5822 -17.5628 -17.4619 -17.3950  -9.8078  -9.2760
    -9.1255  -8.7959  -8.5460  -8.4809  -8.2225  -7.8619  -7.6848  -7.5479
    -7.4322  -7.2365  -6.9112  -6.8440  -6.7235  -6.5268  -6.3069  -6.0739
    -3.9316  -3.9073  -3.5971  -3.5638  -3.4048  -3.3395  -2.8811  -2.7819
    -2.6837  -2.6723

     occupation numbers 
     1.0000   1.0000   1.0000   1.0000   1.0000   1.0000   1.0000   1.0000
     1.0000   1.0000   1.0000   1.0000   1.0000   1.0000   1.0000   1.0000
     1.0000   1.0000   1.0000   1.0000   1.0000   1.0000   1.0000   1.0000
     1.0000   1.0000   1.0000   1.0000   1.0000   1.0000   1.0000   1.0000
     0.0000   0.0000   0.0000   0.0000   0.0000   0.0000   0.0000   0.0000
     0.0000   0.0000

          k = 0.2500 0.4330 0.0000 ( 21735 PWs)   bands (ev):

   -75.7087 -75.7065 -47.3842 -47.3832 -47.3507 -47.3501 -47.3500 -47.3492
   -18.1284 -17.8064 -17.6205 -17.5723 -17.4412 -17.3990  -9.6895  -9.3725
    -9.0056  -8.9768  -8.5951  -8.4773  -8.2335  -7.8538  -7.6976  -7.5871
    -7.3920  -7.1374  -7.0020  -6.7877  -6.5694  -6.5318  -6.2570  -6.2210
    -3.9192  -3.8307  -3.6859  -3.5595  -3.3664  -3.3634  -2.8493  -2.7399
    -2.6869  -2.6619

     occupation numbers 
     1.0000   1.0000   1.0000   1.0000   1.0000   1.0000   1.0000   1.0000
     1.0000   1.0000   1.0000   1.0000   1.0000   1.0000   1.0000   1.0000
     1.0000   1.0000   1.0000   1.0000   1.0000   1.0000   1.0000   1.0000
     1.0000   1.0000   1.0000   1.0000   1.0000   1.0000   1.0000   1.0000
     0.0000   0.0000   0.0000   0.0000   0.0000   0.0000   0.0000   0.0000
     0.0000   0.0000

          k = 0.2500 0.5774 0.0000 ( 21742 PWs)   bands (ev):

   -75.7086 -75.7068 -47.3846 -47.3836 -47.3508 -47.3506 -47.3495 -47.3488
   -18.0180 -17.9085 -17.6476 -17.5173 -17.4803 -17.4098  -9.6048  -9.3596
    -9.0063  -8.8272  -8.7781  -8.4198  -8.2362  -8.1446  -7.6510  -7.6504
    -7.1695  -7.1112  -6.9659  -6.7065  -6.6174  -6.5794  -6.2709  -6.1993
    -3.9164  -3.8763  -3.7091  -3.5798  -3.3637  -3.3443  -2.7702  -2.7657
    -2.6882  -2.6269

     occupation numbers 
     1.0000   1.0000   1.0000   1.0000   1.0000   1.0000   1.0000   1.0000
     1.0000   1.0000   1.0000   1.0000   1.0000   1.0000   1.0000   1.0000
     1.0000   1.0000   1.0000   1.0000   1.0000   1.0000   1.0000   1.0000
     1.0000   1.0000   1.0000   1.0000   1.0000   1.0000   1.0000   1.0000
     0.0000   0.0000   0.0000   0.0000   0.0000   0.0000   0.0000   0.0000
     0.0000   0.0000

     the Fermi energy is    -4.9290 ev

!    total energy              =    -511.50421398 Ry
     estimated scf accuracy    <          3.9E-15 Ry
     smearing contrib. (-TS)   =      -0.00000000 Ry
     internal energy E=F+TS    =    -511.50421398 Ry

     The total energy is F=E-TS. E is the sum of the following terms:
     one-electron contribution =   -1700.89773519 Ry
     hartree contribution      =     843.86459888 Ry
     xc contribution           =     -99.65216807 Ry
     ewald contribution        =     445.18109040 Ry

     total magnetization       =     6.00 Bohr mag/cell
     absolute magnetization    =     7.05 Bohr mag/cell

     convergence has been achieved in  20 iterations

     Writing all to output data dir ./cri3_50Ry.save/
 
     init_run     :      0.95s CPU      1.04s WALL (       1 calls)
     electrons    :     50.94s CPU     53.25s WALL (       1 calls)

     Called by init_run:
     wfcinit      :      0.62s CPU      0.67s WALL (       1 calls)
     wfcinit:atom :      0.01s CPU      0.01s WALL (      20 calls)
     wfcinit:wfcr :      0.53s CPU      0.57s WALL (      20 calls)
     potinit      :      0.08s CPU      0.08s WALL (       1 calls)
     hinit0       :      0.13s CPU      0.16s WALL (       1 calls)

     Called by electrons:
     c_bands      :     46.22s CPU     48.25s WALL (      20 calls)
     sum_band     :      4.31s CPU      4.45s WALL (      20 calls)
     v_of_rho     :      0.10s CPU      0.11s WALL (      21 calls)
     v_h          :      0.02s CPU      0.02s WALL (      21 calls)
     v_xc         :      0.08s CPU      0.09s WALL (      21 calls)
     mix_rho      :      0.26s CPU      0.27s WALL (      20 calls)

     Called by c_bands:
     init_us_2    :      1.59s CPU      1.63s WALL (     820 calls)
     init_us_2:cp :      1.58s CPU      1.63s WALL (     820 calls)
     cegterg      :     39.47s CPU     41.43s WALL (     403 calls)

     Called by sum_band:
     sum_band:wei :      0.01s CPU      0.01s WALL (      20 calls)
     sum_band:loo :      4.22s CPU      4.35s WALL (      20 calls)
     sum_band:buf :      0.19s CPU      0.19s WALL (     400 calls)
     sum_band:ini :      0.77s CPU      0.79s WALL (     400 calls)

     Called by *egterg:
     cdiaghg      :      6.29s CPU      7.19s WALL (    1970 calls)
     cegterg:over :      3.47s CPU      3.52s WALL (    1570 calls)
     cegterg:upda :      2.23s CPU      2.32s WALL (    1570 calls)
     cegterg:last :      2.51s CPU      2.55s WALL (     938 calls)
     cdiaghg:chol :      0.47s CPU      0.49s WALL (    1970 calls)
     cdiaghg:inve :      0.18s CPU      0.19s WALL (    1970 calls)
     cdiaghg:para :      0.46s CPU      0.48s WALL (    3940 calls)
     h_psi        :     24.04s CPU     24.94s WALL (    1993 calls)
     g_psi        :      0.17s CPU      0.18s WALL (    1570 calls)

     Called by h_psi:
     h_psi:calbec :      3.20s CPU      3.30s WALL (    1993 calls)
     vloc_psi     :     17.50s CPU     18.24s WALL (    1993 calls)
     add_vuspsi   :      2.98s CPU      3.03s WALL (    1993 calls)

     General routines
     calbec       :      3.19s CPU      3.29s WALL (    1993 calls)
     fft          :      0.05s CPU      0.08s WALL (     103 calls)
     ffts         :      0.01s CPU      0.01s WALL (      40 calls)
     fftw         :     17.46s CPU     18.18s WALL (  114622 calls)
 
     Parallel routines
 
     PWSCF        :     52.30s CPU     58.86s WALL

 
   This run was terminated on:  14:52:27  10Jan2024            

=------------------------------------------------------------------------------=
   JOB DONE.
=------------------------------------------------------------------------------=
