
     Program PWSCF v.7.0 starts on 10Jan2024 at 14:51:53 

     This program is part of the open-source Quantum ESPRESSO suite
     for quantum simulation of materials; please cite
         "P. Giannozzi et al., J. Phys.:Condens. Matter 21 395502 (2009);
         "P. Giannozzi et al., J. Phys.:Condens. Matter 29 465901 (2017);
         "P. Giannozzi et al., J. Chem. Phys. 152 154105 (2020);
          URL http://www.quantum-espresso.org", 
     in publications or presentations arising from this work. More details at
     http://www.quantum-espresso.org/quote

     Parallel version (MPI), running on    24 processors

     MPI processes distributed on     1 nodes
     R & G space division:  proc/nbgrp/npool/nimage =      24
     118009 MiB available memory on the printing compute node when the environment starts
 
     Reading input from cri3-exp-nosoc_120Ry.scf.in

     Current dimensions of program PWSCF are:
     Max number of different atomic species (ntypx) = 10
     Max number of k-points (npk) =  40000
     Max angular momentum in pseudopotentials (lmaxx) =  4

     Subspace diagonalization in iterative solution of the eigenvalue problem:
     one sub-group per band group will be used
     scalapack distributed-memory algorithm (size of sub-group:  4*  4 procs)

 
     Parallelization info
     --------------------
     sticks:   dense  smooth     PW     G-vecs:    dense   smooth      PW
     Min         232     232     61                26980    26980    3661
     Max         233     233     62                26987    26987    3668
     Sum        5587    5587   1483               647617   647617   87971
 
     Using Slab Decomposition
 


     bravais-lattice index     =            4
     lattice parameter (alat)  =      12.9767  a.u.
     unit-cell volume          =    3645.8815 (a.u.)^3
     number of atoms/cell      =            8
     number of atomic types    =            2
     number of electrons       =        70.00
     number of Kohn-Sham states=           42
     kinetic-energy cutoff     =     120.0000  Ry
     charge density cutoff     =     480.0000  Ry
     scf convergence threshold =      1.0E-13
     mixing beta               =       0.7000
     number of iterations used =            8  plain     mixing
     Exchange-correlation= PZ
                           (   1   1   0   0   0   0   0)

     celldm(1)=  12.976749  celldm(2)=   0.000000  celldm(3)=   1.926523
     celldm(4)=   0.000000  celldm(5)=   0.000000  celldm(6)=   0.000000

     crystal axes: (cart. coord. in units of alat)
               a(1) = (   1.000000   0.000000   0.000000 )  
               a(2) = (  -0.500000   0.866025   0.000000 )  
               a(3) = (   0.000000   0.000000   1.926523 )  

     reciprocal axes: (cart. coord. in units 2 pi/alat)
               b(1) = (  1.000000  0.577350  0.000000 )  
               b(2) = (  0.000000  1.154701  0.000000 )  
               b(3) = (  0.000000  0.000000  0.519070 )  


     PseudoPot. # 1 for Cr read from file:
     ./Cr_Alejandro.upf
     MD5 check sum: 19f8874af457815d5c8e16c7b8c57f71
     Pseudo is Norm-conserving + core correction, Zval = 14.0
     Generated using ONCVPSP code by D. R. Hamann
     Using radial grid of 1600 points,  6 beta functions with: 
                l(1) =   0
                l(2) =   0
                l(3) =   1
                l(4) =   1
                l(5) =   2
                l(6) =   2

     PseudoPot. # 2 for I  read from file:
     ./I_Alejandro.upf
     MD5 check sum: d0d4d45a39a9ecd37d4d9deb6bd296a3
     Pseudo is Norm-conserving + core correction, Zval =  7.0
     Generated using ONCVPSP code by D. R. Hamann
     Using radial grid of 1196 points,  6 beta functions with: 
                l(1) =   0
                l(2) =   0
                l(3) =   1
                l(4) =   1
                l(5) =   2
                l(6) =   2

     atomic species   valence    mass     pseudopotential
        Cr            14.00    51.99000     Cr( 1.00)
        I              7.00   126.90000     I ( 1.00)

     Starting magnetic structure 
     atomic species   magnetization
        Cr           1.000
        I            0.000

      6 Sym. Ops. (no inversion) found ( 3 have fractional translation)


                                    s                        frac. trans.

      isym =  1     identity                                     

 cryst.   s( 1) = (     1          0          0      )
                  (     0          1          0      )
                  (     0          0          1      )

 cart.    s( 1) = (  1.0000000  0.0000000  0.0000000 )
                  (  0.0000000  1.0000000  0.0000000 )
                  (  0.0000000  0.0000000  1.0000000 )


      isym =  2     120 deg rotation - cryst. axis [0,0,1]       

 cryst.   s( 2) = (     0          1          0      )
                  (    -1         -1          0      )
                  (     0          0          1      )

 cart.    s( 2) = ( -0.5000000 -0.8660254  0.0000000 )
                  (  0.8660254 -0.5000000  0.0000000 )
                  (  0.0000000  0.0000000  1.0000000 )


      isym =  3     120 deg rotation - cryst. axis [0,0,-1]      

 cryst.   s( 3) = (    -1         -1          0      )
                  (     1          0          0      )
                  (     0          0          1      )

 cart.    s( 3) = ( -0.5000000  0.8660254  0.0000000 )
                  ( -0.8660254 -0.5000000  0.0000000 )
                  (  0.0000000  0.0000000  1.0000000 )


      isym =  4     inv. 180 deg rotation - cart. axis [0,1,0]   

 cryst.   s( 4) = (     1          0          0      )    f =( -0.3333333 )
                  (    -1         -1          0      )       (  0.3333333 )
                  (     0          0          1      )       (  0.0000000 )

 cart.    s( 4) = (  1.0000000  0.0000000  0.0000000 )    f =( -0.5000000 )
                  (  0.0000000 -1.0000000  0.0000000 )       (  0.2886751 )
                  (  0.0000000  0.0000000  1.0000000 )       (  0.0000000 )


      isym =  5     inv. 180 deg rotation - cryst. axis [1,-1,0] 

 cryst.   s( 5) = (     0          1          0      )    f =( -0.3333333 )
                  (     1          0          0      )       (  0.3333333 )
                  (     0          0          1      )       (  0.0000000 )

 cart.    s( 5) = ( -0.5000000  0.8660254  0.0000000 )    f =( -0.5000000 )
                  (  0.8660254  0.5000000  0.0000000 )       (  0.2886751 )
                  (  0.0000000  0.0000000  1.0000000 )       (  0.0000000 )


      isym =  6     inv. 180 deg rotation - cryst. axis [2,1,0]  

 cryst.   s( 6) = (    -1         -1          0      )    f =( -0.3333333 )
                  (     0          1          0      )       (  0.3333333 )
                  (     0          0          1      )       (  0.0000000 )

 cart.    s( 6) = ( -0.5000000 -0.8660254  0.0000000 )    f =( -0.5000000 )
                  ( -0.8660254  0.5000000  0.0000000 )       (  0.2886751 )
                  (  0.0000000  0.0000000  1.0000000 )       (  0.0000000 )


     point group C_3v (3m)  
     there are  3 classes
     the character table:

       E     2C3   3s_v 
A_1    1.00  1.00  1.00
A_2    1.00  1.00 -1.00
E      2.00 -1.00  0.00

     the symmetry operations in each class and the name of the first element:

     E        1
          identity                                               
     2C3      2    3
          120 deg rotation - cryst. axis [0,0,1]                 
     3s_v     4    6    5
          inv. 180 deg rotation - cart. axis [0,1,0]             

   Cartesian axes

     site n.     atom                  positions (alat units)
         1           Cr  tau(   1) = (   0.0000000   0.0000000   0.4846161  )
         2           Cr  tau(   2) = (   0.0000000   0.5773503   0.4846161  )
         3           I   tau(   3) = (  -0.1753225   0.8510331   0.7123856  )
         4           I   tau(   4) = (   0.3246775   0.5923426   0.7123856  )
         5           I   tau(   5) = (  -0.1493550   0.2886751   0.7123856  )
         6           I   tau(   6) = (  -0.3246775   0.5923426   0.2568467  )
         7           I   tau(   7) = (   0.1753225   0.8510331   0.2568467  )
         8           I   tau(   8) = (   0.1493550   0.2886751   0.2568467  )

   Crystallographic axes

     site n.     atom                  positions (cryst. coord.)
         1           Cr  tau(   1) = (  0.0000000  0.0000000  0.2515496  )
         2           Cr  tau(   2) = (  0.3333333  0.6666667  0.2515496  )
         3           I   tau(   3) = (  0.3160217  0.9826883  0.3697779  )
         4           I   tau(   4) = (  0.6666667  0.6839783  0.3697779  )
         5           I   tau(   5) = (  0.0173117  0.3333333  0.3697779  )
         6           I   tau(   6) = (  0.0173117  0.6839783  0.1333214  )
         7           I   tau(   7) = (  0.6666667  0.9826883  0.1333214  )
         8           I   tau(   8) = (  0.3160217  0.3333333  0.1333214  )

     number of k points=    10  Gaussian smearing, width (Ry)=  0.0050
                       cart. coord. in units 2pi/alat
        k(    1) = (   0.0000000   0.0000000   0.0000000), wk =   0.0156250
        k(    2) = (   0.0000000   0.1443376   0.0000000), wk =   0.0937500
        k(    3) = (   0.0000000   0.2886751   0.0000000), wk =   0.0937500
        k(    4) = (   0.0000000   0.4330127   0.0000000), wk =   0.0937500
        k(    5) = (   0.0000000  -0.5773503   0.0000000), wk =   0.0468750
        k(    6) = (   0.1250000   0.2165064   0.0000000), wk =   0.0937500
        k(    7) = (   0.1250000   0.3608439   0.0000000), wk =   0.1875000
        k(    8) = (   0.1250000   0.5051815   0.0000000), wk =   0.1875000
        k(    9) = (   0.2500000   0.4330127   0.0000000), wk =   0.0937500
        k(   10) = (   0.2500000   0.5773503   0.0000000), wk =   0.0937500

                       cryst. coord.
        k(    1) = (   0.0000000   0.0000000   0.0000000), wk =   0.0156250
        k(    2) = (   0.0000000   0.1250000   0.0000000), wk =   0.0937500
        k(    3) = (   0.0000000   0.2500000   0.0000000), wk =   0.0937500
        k(    4) = (   0.0000000   0.3750000   0.0000000), wk =   0.0937500
        k(    5) = (   0.0000000  -0.5000000   0.0000000), wk =   0.0468750
        k(    6) = (   0.1250000   0.1250000   0.0000000), wk =   0.0937500
        k(    7) = (   0.1250000   0.2500000   0.0000000), wk =   0.1875000
        k(    8) = (   0.1250000   0.3750000   0.0000000), wk =   0.1875000
        k(    9) = (   0.2500000   0.2500000   0.0000000), wk =   0.0937500
        k(   10) = (   0.2500000   0.3750000   0.0000000), wk =   0.0937500

     Dense  grid:   647617 G-vectors     FFT dimensions: (  96,  96, 180)

     Dynamical RAM for                 wfc:       2.16 MB

     Dynamical RAM for     wfc (w. buffer):      45.38 MB

     Dynamical RAM for           str. fact:       0.82 MB

     Dynamical RAM for           local pot:       0.00 MB

     Dynamical RAM for          nlocal pot:       7.41 MB

     Dynamical RAM for                qrad:       3.52 MB

     Dynamical RAM for          rho,v,vnew:       5.85 MB

     Dynamical RAM for               rhoin:       1.95 MB

     Dynamical RAM for            rho*nmix:      13.18 MB

     Dynamical RAM for           G-vectors:       1.75 MB

     Dynamical RAM for          h,s,v(r/c):       0.02 MB

     Dynamical RAM for          <psi|beta>:       0.09 MB

     Dynamical RAM for                 psi:       4.32 MB

     Dynamical RAM for                hpsi:       4.32 MB

     Dynamical RAM for      wfcinit/wfcrot:       4.57 MB

     Estimated static dynamical RAM per process >      71.28 MB

     Estimated max dynamical RAM per process >      93.22 MB

     Estimated total dynamical RAM >       2.18 GB
 ----2D----2D----2D----2D----2D----2D----2D----2D----2D----2D----2D----2D
  The code is running with the 2D cutoff
  Please refer to:
  Sohier, T., Calandra, M., & Mauri, F. (2017), 
  Density functional perturbation theory for gated two-dimensional heterostructu
 res:
  Theoretical developments and application to flexural phonons in graphene.
  Physical Review B, 96(7), 75448. https://doi.org/10.1103/PhysRevB.96.075448
 ----2D----2D----2D----2D----2D----2D----2D----2D----2D----2D----2D----2D
     Generating pointlists ...
     new r_m :   0.1637 (alat units)  2.1245 (a.u.) for type    1
     new r_m :   0.1637 (alat units)  2.1245 (a.u.) for type    2

     Initial potential from superposition of free atoms

     starting charge      69.9974, renormalised to      70.0000

     negative rho (up, down):  5.319E-07 1.351E-08
     Starting wfcs are   44 randomized atomic wfcs

     total cpu time spent up to now is        5.1 secs

     Self-consistent Calculation

     iteration #  1     ecut=   120.00 Ry     beta= 0.70
     Davidson diagonalization with overlap

---- Real-time Memory Report at c_bands before calling an iterative solver
           211 MiB given to the printing process from OS
             0 MiB allocation reported by mallinfo(arena+hblkhd)
        115859 MiB available memory on the node where the printing process lives
------------------
     c_bands:  1 eigenvalues not converged
     c_bands:  5 eigenvalues not converged
     c_bands:  5 eigenvalues not converged
     c_bands:  5 eigenvalues not converged
     c_bands:  5 eigenvalues not converged
     c_bands:  3 eigenvalues not converged
     c_bands:  4 eigenvalues not converged
     ethr =  5.00E-06,  avg # of iterations = 18.1

     negative rho (up, down):  1.428E-07 1.071E-09

     total cpu time spent up to now is       42.6 secs

     total energy              =    -511.37691647 Ry
     estimated scf accuracy    <       4.55719147 Ry

     total magnetization       =     6.00 Bohr mag/cell
     absolute magnetization    =    10.88 Bohr mag/cell

     iteration #  2     ecut=   120.00 Ry     beta= 0.70
     Davidson diagonalization with overlap

---- Real-time Memory Report at c_bands before calling an iterative solver
           234 MiB given to the printing process from OS
             0 MiB allocation reported by mallinfo(arena+hblkhd)
        113148 MiB available memory on the node where the printing process lives
------------------
     ethr =  6.51E-03,  avg # of iterations =  6.1

     negative rho (up, down):  2.597E-08 0.000E+00

     total cpu time spent up to now is       52.3 secs

     total energy              =    -511.50518788 Ry
     estimated scf accuracy    <       0.96723653 Ry

     total magnetization       =     6.00 Bohr mag/cell
     absolute magnetization    =    10.62 Bohr mag/cell

     iteration #  3     ecut=   120.00 Ry     beta= 0.70
     Davidson diagonalization with overlap

---- Real-time Memory Report at c_bands before calling an iterative solver
           237 MiB given to the printing process from OS
             0 MiB allocation reported by mallinfo(arena+hblkhd)
        113102 MiB available memory on the node where the printing process lives
------------------
     ethr =  1.38E-03,  avg # of iterations =  7.5

     total cpu time spent up to now is       64.2 secs

     total energy              =    -511.47355558 Ry
     estimated scf accuracy    <       6.01569210 Ry

     total magnetization       =     6.00 Bohr mag/cell
     absolute magnetization    =     6.39 Bohr mag/cell

     iteration #  4     ecut=   120.00 Ry     beta= 0.70
     Davidson diagonalization with overlap

---- Real-time Memory Report at c_bands before calling an iterative solver
           239 MiB given to the printing process from OS
             0 MiB allocation reported by mallinfo(arena+hblkhd)
        113059 MiB available memory on the node where the printing process lives
------------------
     ethr =  1.38E-03,  avg # of iterations =  7.5

     total cpu time spent up to now is       76.5 secs

     total energy              =    -512.05690533 Ry
     estimated scf accuracy    <       0.10100573 Ry

     total magnetization       =     6.00 Bohr mag/cell
     absolute magnetization    =     7.57 Bohr mag/cell

     iteration #  5     ecut=   120.00 Ry     beta= 0.70
     Davidson diagonalization with overlap

---- Real-time Memory Report at c_bands before calling an iterative solver
           241 MiB given to the printing process from OS
             0 MiB allocation reported by mallinfo(arena+hblkhd)
        112778 MiB available memory on the node where the printing process lives
------------------
     ethr =  1.44E-04,  avg # of iterations =  6.8

     total cpu time spent up to now is       87.3 secs

     total energy              =    -512.08641609 Ry
     estimated scf accuracy    <       0.00454728 Ry

     total magnetization       =     6.00 Bohr mag/cell
     absolute magnetization    =     7.51 Bohr mag/cell

     iteration #  6     ecut=   120.00 Ry     beta= 0.70
     Davidson diagonalization with overlap

---- Real-time Memory Report at c_bands before calling an iterative solver
           243 MiB given to the printing process from OS
             0 MiB allocation reported by mallinfo(arena+hblkhd)
        112740 MiB available memory on the node where the printing process lives
------------------
     ethr =  6.50E-06,  avg # of iterations =  4.0

     total cpu time spent up to now is       95.8 secs

     total energy              =    -512.08825979 Ry
     estimated scf accuracy    <       0.00132705 Ry

     total magnetization       =     6.00 Bohr mag/cell
     absolute magnetization    =     7.34 Bohr mag/cell

     iteration #  7     ecut=   120.00 Ry     beta= 0.70
     Davidson diagonalization with overlap

---- Real-time Memory Report at c_bands before calling an iterative solver
           245 MiB given to the printing process from OS
             0 MiB allocation reported by mallinfo(arena+hblkhd)
        112641 MiB available memory on the node where the printing process lives
------------------
     ethr =  1.90E-06,  avg # of iterations =  3.0

     total cpu time spent up to now is      104.5 secs

     total energy              =    -512.08868373 Ry
     estimated scf accuracy    <       0.00019281 Ry

     total magnetization       =     6.00 Bohr mag/cell
     absolute magnetization    =     7.16 Bohr mag/cell

     iteration #  8     ecut=   120.00 Ry     beta= 0.70
     Davidson diagonalization with overlap

---- Real-time Memory Report at c_bands before calling an iterative solver
           247 MiB given to the printing process from OS
             0 MiB allocation reported by mallinfo(arena+hblkhd)
        112603 MiB available memory on the node where the printing process lives
------------------
     ethr =  2.75E-07,  avg # of iterations =  3.8

     total cpu time spent up to now is      114.2 secs

     total energy              =    -512.08865952 Ry
     estimated scf accuracy    <       0.00069165 Ry

     total magnetization       =     6.00 Bohr mag/cell
     absolute magnetization    =     7.14 Bohr mag/cell

     iteration #  9     ecut=   120.00 Ry     beta= 0.70
     Davidson diagonalization with overlap

---- Real-time Memory Report at c_bands before calling an iterative solver
           249 MiB given to the printing process from OS
             0 MiB allocation reported by mallinfo(arena+hblkhd)
        112505 MiB available memory on the node where the printing process lives
------------------
     ethr =  2.75E-07,  avg # of iterations =  2.6

     total cpu time spent up to now is      122.7 secs

     total energy              =    -512.08877916 Ry
     estimated scf accuracy    <       0.00001199 Ry

     total magnetization       =     6.00 Bohr mag/cell
     absolute magnetization    =     7.13 Bohr mag/cell

     iteration # 10     ecut=   120.00 Ry     beta= 0.70
     Davidson diagonalization with overlap

---- Real-time Memory Report at c_bands before calling an iterative solver
           250 MiB given to the printing process from OS
             0 MiB allocation reported by mallinfo(arena+hblkhd)
        112464 MiB available memory on the node where the printing process lives
------------------
     ethr =  1.71E-08,  avg # of iterations =  3.7

     total cpu time spent up to now is      131.8 secs

     total energy              =    -512.08878220 Ry
     estimated scf accuracy    <       0.00000437 Ry

     total magnetization       =     6.00 Bohr mag/cell
     absolute magnetization    =     7.13 Bohr mag/cell

     iteration # 11     ecut=   120.00 Ry     beta= 0.70
     Davidson diagonalization with overlap

---- Real-time Memory Report at c_bands before calling an iterative solver
           250 MiB given to the printing process from OS
             0 MiB allocation reported by mallinfo(arena+hblkhd)
        112409 MiB available memory on the node where the printing process lives
------------------
     ethr =  6.25E-09,  avg # of iterations =  1.5

     total cpu time spent up to now is      138.8 secs

     total energy              =    -512.08878251 Ry
     estimated scf accuracy    <       0.00000039 Ry

     total magnetization       =     6.00 Bohr mag/cell
     absolute magnetization    =     7.13 Bohr mag/cell

     iteration # 12     ecut=   120.00 Ry     beta= 0.70
     Davidson diagonalization with overlap

---- Real-time Memory Report at c_bands before calling an iterative solver
           250 MiB given to the printing process from OS
             0 MiB allocation reported by mallinfo(arena+hblkhd)
        112402 MiB available memory on the node where the printing process lives
------------------
     ethr =  5.61E-10,  avg # of iterations =  3.6

     total cpu time spent up to now is      148.1 secs

     total energy              =    -512.08878260 Ry
     estimated scf accuracy    <          8.4E-09 Ry

     total magnetization       =     6.00 Bohr mag/cell
     absolute magnetization    =     7.13 Bohr mag/cell

     iteration # 13     ecut=   120.00 Ry     beta= 0.70
     Davidson diagonalization with overlap

---- Real-time Memory Report at c_bands before calling an iterative solver
           250 MiB given to the printing process from OS
             0 MiB allocation reported by mallinfo(arena+hblkhd)
        112402 MiB available memory on the node where the printing process lives
------------------
     ethr =  1.20E-11,  avg # of iterations =  4.8

     total cpu time spent up to now is      159.0 secs

     total energy              =    -512.08878260 Ry
     estimated scf accuracy    <          6.9E-09 Ry

     total magnetization       =     6.00 Bohr mag/cell
     absolute magnetization    =     7.13 Bohr mag/cell

     iteration # 14     ecut=   120.00 Ry     beta= 0.70
     Davidson diagonalization with overlap

---- Real-time Memory Report at c_bands before calling an iterative solver
           250 MiB given to the printing process from OS
             0 MiB allocation reported by mallinfo(arena+hblkhd)
        112343 MiB available memory on the node where the printing process lives
------------------
     ethr =  9.81E-12,  avg # of iterations =  2.0

     total cpu time spent up to now is      166.5 secs

     total energy              =    -512.08878260 Ry
     estimated scf accuracy    <          2.4E-10 Ry

     total magnetization       =     6.00 Bohr mag/cell
     absolute magnetization    =     7.13 Bohr mag/cell

     iteration # 15     ecut=   120.00 Ry     beta= 0.70
     Davidson diagonalization with overlap

---- Real-time Memory Report at c_bands before calling an iterative solver
           250 MiB given to the printing process from OS
             0 MiB allocation reported by mallinfo(arena+hblkhd)
        112287 MiB available memory on the node where the printing process lives
------------------
     ethr =  3.46E-13,  avg # of iterations =  5.0

     total cpu time spent up to now is      177.6 secs

     total energy              =    -512.08878260 Ry
     estimated scf accuracy    <          3.2E-11 Ry

     total magnetization       =     6.00 Bohr mag/cell
     absolute magnetization    =     7.13 Bohr mag/cell

     iteration # 16     ecut=   120.00 Ry     beta= 0.70
     Davidson diagonalization with overlap

---- Real-time Memory Report at c_bands before calling an iterative solver
           250 MiB given to the printing process from OS
             0 MiB allocation reported by mallinfo(arena+hblkhd)
        112283 MiB available memory on the node where the printing process lives
------------------
     ethr =  1.00E-13,  avg # of iterations =  2.0

     total cpu time spent up to now is      185.5 secs

     total energy              =    -512.08878260 Ry
     estimated scf accuracy    <          1.3E-11 Ry

     total magnetization       =     6.00 Bohr mag/cell
     absolute magnetization    =     7.13 Bohr mag/cell

     iteration # 17     ecut=   120.00 Ry     beta= 0.70
     Davidson diagonalization with overlap

---- Real-time Memory Report at c_bands before calling an iterative solver
           250 MiB given to the printing process from OS
             0 MiB allocation reported by mallinfo(arena+hblkhd)
        112227 MiB available memory on the node where the printing process lives
------------------
     ethr =  1.00E-13,  avg # of iterations =  1.0

     total cpu time spent up to now is      192.0 secs

     total energy              =    -512.08878260 Ry
     estimated scf accuracy    <          8.0E-13 Ry

     total magnetization       =     6.00 Bohr mag/cell
     absolute magnetization    =     7.13 Bohr mag/cell

     iteration # 18     ecut=   120.00 Ry     beta= 0.70
     Davidson diagonalization with overlap

---- Real-time Memory Report at c_bands before calling an iterative solver
           250 MiB given to the printing process from OS
             0 MiB allocation reported by mallinfo(arena+hblkhd)
        112225 MiB available memory on the node where the printing process lives
------------------
     ethr =  1.00E-13,  avg # of iterations =  1.0
 
     Magnetic moment per site  (integrated on atomic sphere of radius R)
     atom   1 (R=0.164)  charge= 12.4365  magn=  2.9402
     atom   2 (R=0.164)  charge= 12.4365  magn=  2.9402
     atom   3 (R=0.164)  charge=  4.1208  magn= -0.0522
     atom   4 (R=0.164)  charge=  4.1208  magn= -0.0522
     atom   5 (R=0.164)  charge=  4.1208  magn= -0.0522
     atom   6 (R=0.164)  charge=  4.1209  magn= -0.0522
     atom   7 (R=0.164)  charge=  4.1209  magn= -0.0522
     atom   8 (R=0.164)  charge=  4.1209  magn= -0.0522

     total cpu time spent up to now is      198.5 secs

     End of self-consistent calculation

 ------ SPIN UP ------------


          k = 0.0000 0.0000 0.0000 ( 80979 PWs)   bands (ev):

   -77.4063 -77.4060 -49.1405 -49.1395 -49.1310 -49.1310 -49.1281 -49.1281
   -18.4876 -17.7429 -17.4393 -17.4393 -17.3452 -17.3452 -10.1009  -9.5993
    -9.0569  -9.0569  -9.0104  -9.0104  -8.6898  -8.2617  -8.2617  -8.2296
    -7.8281  -7.8281  -7.3842  -6.6895  -6.6895  -6.6538  -6.4589  -6.1668
    -6.1668  -6.1100  -6.0321  -6.0321  -5.6175  -5.6175  -4.4435  -4.4435
    -4.0113  -4.0113

     occupation numbers 
     1.0000   1.0000   1.0000   1.0000   1.0000   1.0000   1.0000   1.0000
     1.0000   1.0000   1.0000   1.0000   1.0000   1.0000   1.0000   1.0000
     1.0000   1.0000   1.0000   1.0000   1.0000   1.0000   1.0000   1.0000
     1.0000   1.0000   1.0000   1.0000   1.0000   1.0000   1.0000   1.0000
     1.0000   1.0000   1.0000   1.0000   1.0000   1.0000   0.0000   0.0000
     0.0000   0.0000

          k = 0.0000 0.1443 0.0000 ( 80919 PWs)   bands (ev):

   -77.4063 -77.4060 -49.1405 -49.1395 -49.1310 -49.1309 -49.1282 -49.1281
   -18.4545 -17.7242 -17.4856 -17.4578 -17.3490 -17.3477 -10.0996  -9.5928
    -9.0846  -9.0712  -9.0557  -8.9441  -8.5920  -8.3092  -8.2699  -8.0504
    -7.8407  -7.7501  -7.3501  -6.8342  -6.7927  -6.5056  -6.4693  -6.3504
    -6.2254  -6.0663  -6.0015  -6.0003  -5.6719  -5.5932  -4.4405  -4.4250
    -4.1375  -4.0378

     occupation numbers 
     1.0000   1.0000   1.0000   1.0000   1.0000   1.0000   1.0000   1.0000
     1.0000   1.0000   1.0000   1.0000   1.0000   1.0000   1.0000   1.0000
     1.0000   1.0000   1.0000   1.0000   1.0000   1.0000   1.0000   1.0000
     1.0000   1.0000   1.0000   1.0000   1.0000   1.0000   1.0000   1.0000
     1.0000   1.0000   1.0000   1.0000   1.0000   1.0000   0.0000   0.0000
     0.0000   0.0000

          k = 0.0000 0.2887 0.0000 ( 80955 PWs)   bands (ev):

   -77.4062 -77.4061 -49.1404 -49.1396 -49.1311 -49.1307 -49.1284 -49.1280
   -18.3594 -17.6715 -17.6071 -17.4947 -17.3692 -17.3634 -10.0852  -9.5696
    -9.1609  -9.1034  -9.0357  -8.7102  -8.4858  -8.3599  -8.2921  -7.8913
    -7.6777  -7.5681  -7.3379  -7.0089  -6.9693  -6.8250  -6.3663  -6.3498
    -6.2862  -6.0397  -5.9912  -5.9854  -5.7454  -5.5708  -4.4321  -4.3790
    -4.3057  -4.1256

     occupation numbers 
     1.0000   1.0000   1.0000   1.0000   1.0000   1.0000   1.0000   1.0000
     1.0000   1.0000   1.0000   1.0000   1.0000   1.0000   1.0000   1.0000
     1.0000   1.0000   1.0000   1.0000   1.0000   1.0000   1.0000   1.0000
     1.0000   1.0000   1.0000   1.0000   1.0000   1.0000   1.0000   1.0000
     1.0000   1.0000   1.0000   1.0000   1.0000   1.0000   0.0000   0.0000
     0.0000   0.0000

          k = 0.0000 0.4330 0.0000 ( 80903 PWs)   bands (ev):

   -77.4062 -77.4061 -49.1402 -49.1398 -49.1312 -49.1304 -49.1287 -49.1279
   -18.2193 -17.7713 -17.5961 -17.5257 -17.4196 -17.3801 -10.0802  -9.4894
    -9.2239  -9.0504  -8.8692  -8.6366  -8.5663  -8.2833  -8.1669  -7.9667
    -7.6600  -7.4989  -7.4146  -7.1435  -6.9435  -6.8693  -6.4246  -6.3599
    -6.2738  -6.0306  -6.0097  -5.9556  -5.7920  -5.5805  -4.4140  -4.3504
    -4.2802  -4.2489

     occupation numbers 
     1.0000   1.0000   1.0000   1.0000   1.0000   1.0000   1.0000   1.0000
     1.0000   1.0000   1.0000   1.0000   1.0000   1.0000   1.0000   1.0000
     1.0000   1.0000   1.0000   1.0000   1.0000   1.0000   1.0000   1.0000
     1.0000   1.0000   1.0000   1.0000   1.0000   1.0000   1.0000   1.0000
     1.0000   1.0000   1.0000   1.0000   1.0000   1.0000   0.0000   0.0000
     0.0000   0.0000

          k = 0.0000-0.5774 0.0000 ( 80934 PWs)   bands (ev):

   -77.4062 -77.4061 -49.1402 -49.1398 -49.1312 -49.1302 -49.1289 -49.1279
   -18.1125 -17.8879 -17.5374 -17.5346 -17.4719 -17.3872 -10.0853  -9.4265
    -9.2476  -8.9768  -8.7509  -8.6891  -8.5891  -8.2343  -8.0852  -8.0173
    -7.8566  -7.6548  -7.3779  -7.0054  -6.8437  -6.8085  -6.4869  -6.4431
    -6.2898  -6.0584  -6.0037  -5.8906  -5.8104  -5.5974  -4.3818  -4.3530
    -4.3320  -4.2065

     occupation numbers 
     1.0000   1.0000   1.0000   1.0000   1.0000   1.0000   1.0000   1.0000
     1.0000   1.0000   1.0000   1.0000   1.0000   1.0000   1.0000   1.0000
     1.0000   1.0000   1.0000   1.0000   1.0000   1.0000   1.0000   1.0000
     1.0000   1.0000   1.0000   1.0000   1.0000   1.0000   1.0000   1.0000
     1.0000   1.0000   1.0000   1.0000   1.0000   1.0000   0.0000   0.0000
     0.0000   0.0000

          k = 0.1250 0.2165 0.0000 ( 80987 PWs)   bands (ev):

   -77.4062 -77.4061 -49.1404 -49.1396 -49.1311 -49.1308 -49.1284 -49.1280
   -18.3903 -17.6885 -17.5606 -17.4953 -17.3617 -17.3555 -10.0800  -9.5884
    -9.1320  -9.1318  -9.0464  -8.7665  -8.4654  -8.4113  -8.2567  -7.8806
    -7.7738  -7.6287  -7.3460  -6.9759  -6.8850  -6.6533  -6.5047  -6.3857
    -6.2253  -6.0357  -6.0208  -5.9552  -5.7252  -5.5713  -4.4471  -4.3876
    -4.2912  -4.0692

     occupation numbers 
     1.0000   1.0000   1.0000   1.0000   1.0000   1.0000   1.0000   1.0000
     1.0000   1.0000   1.0000   1.0000   1.0000   1.0000   1.0000   1.0000
     1.0000   1.0000   1.0000   1.0000   1.0000   1.0000   1.0000   1.0000
     1.0000   1.0000   1.0000   1.0000   1.0000   1.0000   1.0000   1.0000
     1.0000   1.0000   1.0000   1.0000   1.0000   1.0000   0.0000   0.0000
     0.0000   0.0000

          k = 0.1250 0.3608 0.0000 ( 80906 PWs)   bands (ev):

   -77.4062 -77.4061 -49.1403 -49.1397 -49.1312 -49.1305 -49.1287 -49.1279
   -18.2712 -17.6942 -17.6243 -17.5420 -17.3948 -17.3722 -10.0308  -9.5633
    -9.1790  -9.1244  -8.9613  -8.5897  -8.5827  -8.3546  -8.1224  -7.9366
    -7.6647  -7.4876  -7.3865  -7.0618  -6.9787  -6.8534  -6.5606  -6.3498
    -6.2277  -6.0481  -5.9841  -5.9224  -5.7776  -5.5739  -4.4446  -4.3614
    -4.3179  -4.1382

     occupation numbers 
     1.0000   1.0000   1.0000   1.0000   1.0000   1.0000   1.0000   1.0000
     1.0000   1.0000   1.0000   1.0000   1.0000   1.0000   1.0000   1.0000
     1.0000   1.0000   1.0000   1.0000   1.0000   1.0000   1.0000   1.0000
     1.0000   1.0000   1.0000   1.0000   1.0000   1.0000   1.0000   1.0000
     1.0000   1.0000   1.0000   1.0000   1.0000   1.0000   0.0000   0.0000
     0.0000   0.0000

          k = 0.1250 0.5052 0.0000 ( 80936 PWs)   bands (ev):

   -77.4062 -77.4061 -49.1402 -49.1398 -49.1312 -49.1302 -49.1289 -49.1279
   -18.1275 -17.8503 -17.5696 -17.5484 -17.4502 -17.3862 -10.0070  -9.4763
    -9.2129  -9.0426  -8.7822  -8.7496  -8.5713  -8.3031  -8.1802  -7.8906
    -7.8231  -7.4444  -7.3918  -7.0898  -6.8631  -6.7948  -6.5951  -6.4793
    -6.2551  -6.0382  -5.9541  -5.8688  -5.8102  -5.6010  -4.3756  -4.3704
    -4.2775  -4.1842

     occupation numbers 
     1.0000   1.0000   1.0000   1.0000   1.0000   1.0000   1.0000   1.0000
     1.0000   1.0000   1.0000   1.0000   1.0000   1.0000   1.0000   1.0000
     1.0000   1.0000   1.0000   1.0000   1.0000   1.0000   1.0000   1.0000
     1.0000   1.0000   1.0000   1.0000   1.0000   1.0000   1.0000   1.0000
     1.0000   1.0000   1.0000   1.0000   1.0000   1.0000   0.0000   0.0000
     0.0000   0.0000

          k = 0.2500 0.4330 0.0000 ( 80941 PWs)   bands (ev):

   -77.4062 -77.4061 -49.1402 -49.1398 -49.1313 -49.1301 -49.1290 -49.1278
   -18.1400 -17.8078 -17.6079 -17.5581 -17.4292 -17.3899  -9.8881  -9.5743
    -9.1535  -9.1286  -8.8432  -8.7768  -8.5625  -8.3169  -8.1947  -7.8951
    -7.7507  -7.4259  -7.2692  -7.0012  -6.9499  -6.8914  -6.6514  -6.5202
    -6.2318  -6.0324  -5.8809  -5.8715  -5.8012  -5.6058  -4.3879  -4.3729
    -4.2596  -4.1215

     occupation numbers 
     1.0000   1.0000   1.0000   1.0000   1.0000   1.0000   1.0000   1.0000
     1.0000   1.0000   1.0000   1.0000   1.0000   1.0000   1.0000   1.0000
     1.0000   1.0000   1.0000   1.0000   1.0000   1.0000   1.0000   1.0000
     1.0000   1.0000   1.0000   1.0000   1.0000   1.0000   1.0000   1.0000
     1.0000   1.0000   1.0000   1.0000   1.0000   1.0000   0.0000   0.0000
     0.0000   0.0000

          k = 0.2500 0.5774 0.0000 ( 80992 PWs)   bands (ev):

   -77.4062 -77.4061 -49.1401 -49.1399 -49.1313 -49.1298 -49.1293 -49.1278
   -18.0273 -17.9129 -17.6350 -17.5034 -17.4678 -17.4009  -9.8022  -9.5565
    -9.1628  -9.0650  -8.9497  -8.6560  -8.6158  -8.4544  -8.2892  -7.9308
    -7.4569  -7.3956  -7.2526  -7.2122  -6.9439  -6.7497  -6.6841  -6.6032
    -6.2458  -6.0215  -5.8792  -5.8389  -5.7542  -5.6480  -4.3872  -4.3004
    -4.2723  -4.0915

     occupation numbers 
     1.0000   1.0000   1.0000   1.0000   1.0000   1.0000   1.0000   1.0000
     1.0000   1.0000   1.0000   1.0000   1.0000   1.0000   1.0000   1.0000
     1.0000   1.0000   1.0000   1.0000   1.0000   1.0000   1.0000   1.0000
     1.0000   1.0000   1.0000   1.0000   1.0000   1.0000   1.0000   1.0000
     1.0000   1.0000   1.0000   1.0000   1.0000   1.0000   0.0000   0.0000
     0.0000   0.0000

 ------ SPIN DOWN ----------


          k = 0.0000 0.0000 0.0000 ( 80979 PWs)   bands (ev):

   -74.4671 -74.4669 -46.2199 -46.2186 -46.1900 -46.1900 -46.1863 -46.1863
   -18.4713 -17.7632 -17.4558 -17.4558 -17.3621 -17.3621  -9.8467  -9.3827
    -8.8941  -8.8941  -8.7450  -8.7450  -8.6105  -8.0357  -7.6350  -7.6350
    -7.3458  -7.3458  -7.3457  -6.6625  -6.3116  -6.3116  -5.7745  -5.7745
    -3.7958  -3.7866  -3.7866  -3.7094  -3.4517  -3.4517  -2.9131  -2.9131
    -2.6414  -2.6414

     occupation numbers 
     1.0000   1.0000   1.0000   1.0000   1.0000   1.0000   1.0000   1.0000
     1.0000   1.0000   1.0000   1.0000   1.0000   1.0000   1.0000   1.0000
     1.0000   1.0000   1.0000   1.0000   1.0000   1.0000   1.0000   1.0000
     1.0000   1.0000   1.0000   1.0000   1.0000   1.0000   1.0000   1.0000
     0.0000   0.0000   0.0000   0.0000   0.0000   0.0000   0.0000   0.0000
     0.0000   0.0000

          k = 0.0000 0.1443 0.0000 ( 80919 PWs)   bands (ev):

   -74.4671 -74.4669 -46.2199 -46.2186 -46.1901 -46.1899 -46.1864 -46.1862
   -18.4389 -17.7444 -17.5006 -17.4745 -17.3655 -17.3646  -9.8544  -9.3766
    -8.9232  -8.9126  -8.7996  -8.7643  -8.3520  -7.8392  -7.7190  -7.6627
    -7.3661  -7.3220  -7.2651  -6.6711  -6.3537  -6.3067  -6.0495  -5.8456
    -3.8455  -3.7412  -3.7171  -3.6501  -3.4721  -3.4650  -2.9188  -2.9096
    -2.7293  -2.6602

     occupation numbers 
     1.0000   1.0000   1.0000   1.0000   1.0000   1.0000   1.0000   1.0000
     1.0000   1.0000   1.0000   1.0000   1.0000   1.0000   1.0000   1.0000
     1.0000   1.0000   1.0000   1.0000   1.0000   1.0000   1.0000   1.0000
     1.0000   1.0000   1.0000   1.0000   1.0000   1.0000   1.0000   1.0000
     0.0000   0.0000   0.0000   0.0000   0.0000   0.0000   0.0000   0.0000
     0.0000   0.0000

          k = 0.0000 0.2887 0.0000 ( 80955 PWs)   bands (ev):

   -74.4671 -74.4669 -46.2198 -46.2187 -46.1902 -46.1896 -46.1867 -46.1861
   -18.3459 -17.6914 -17.6180 -17.5118 -17.3862 -17.3790  -9.8550  -9.3521
    -9.0534  -8.9291  -8.7819  -8.4956  -8.0027  -7.9349  -7.7361  -7.4281
    -7.4126  -7.2990  -7.0929  -6.7080  -6.6873  -6.3952  -6.2960  -5.9879
    -3.8773  -3.7646  -3.6528  -3.5372  -3.4996  -3.4656  -2.9376  -2.9254
    -2.8011  -2.7042

     occupation numbers 
     1.0000   1.0000   1.0000   1.0000   1.0000   1.0000   1.0000   1.0000
     1.0000   1.0000   1.0000   1.0000   1.0000   1.0000   1.0000   1.0000
     1.0000   1.0000   1.0000   1.0000   1.0000   1.0000   1.0000   1.0000
     1.0000   1.0000   1.0000   1.0000   1.0000   1.0000   1.0000   1.0000
     0.0000   0.0000   0.0000   0.0000   0.0000   0.0000   0.0000   0.0000
     0.0000   0.0000

          k = 0.0000 0.4330 0.0000 ( 80903 PWs)   bands (ev):

   -74.4671 -74.4669 -46.2196 -46.2189 -46.1903 -46.1893 -46.1870 -46.1860
   -18.2087 -17.7773 -17.6156 -17.5431 -17.4369 -17.3948  -9.8598  -9.2700
    -9.1379  -8.8196  -8.6241  -8.2758  -8.2470  -7.7793  -7.6621  -7.4956
    -7.3281  -7.3056  -7.0007  -6.9607  -6.7606  -6.4893  -6.2964  -6.0355
    -3.9191  -3.8896  -3.6295  -3.5135  -3.5029  -3.4004  -2.9684  -2.8888
    -2.7852  -2.7378

     occupation numbers 
     1.0000   1.0000   1.0000   1.0000   1.0000   1.0000   1.0000   1.0000
     1.0000   1.0000   1.0000   1.0000   1.0000   1.0000   1.0000   1.0000
     1.0000   1.0000   1.0000   1.0000   1.0000   1.0000   1.0000   1.0000
     1.0000   1.0000   1.0000   1.0000   1.0000   1.0000   1.0000   1.0000
     0.0000   0.0000   0.0000   0.0000   0.0000   0.0000   0.0000   0.0000
     0.0000   0.0000

          k = 0.0000-0.5774 0.0000 ( 80934 PWs)   bands (ev):

   -74.4671 -74.4670 -46.2195 -46.2190 -46.1903 -46.1891 -46.1872 -46.1860
   -18.1033 -17.8917 -17.5551 -17.5543 -17.4890 -17.4016  -9.8674  -9.2070
    -9.1679  -8.6302  -8.5114  -8.4955  -8.1546  -7.8594  -7.6660  -7.4802
    -7.4795  -7.3133  -7.0123  -6.7848  -6.7390  -6.5518  -6.3411  -5.9989
    -3.9642  -3.9408  -3.6391  -3.5137  -3.4914  -3.3765  -2.9845  -2.8623
    -2.7473  -2.7462

     occupation numbers 
     1.0000   1.0000   1.0000   1.0000   1.0000   1.0000   1.0000   1.0000
     1.0000   1.0000   1.0000   1.0000   1.0000   1.0000   1.0000   1.0000
     1.0000   1.0000   1.0000   1.0000   1.0000   1.0000   1.0000   1.0000
     1.0000   1.0000   1.0000   1.0000   1.0000   1.0000   1.0000   1.0000
     0.0000   0.0000   0.0000   0.0000   0.0000   0.0000   0.0000   0.0000
     0.0000   0.0000

          k = 0.1250 0.2165 0.0000 ( 80987 PWs)   bands (ev):

   -74.4671 -74.4669 -46.2198 -46.2187 -46.1902 -46.1897 -46.1866 -46.1861
   -18.3761 -17.7085 -17.5727 -17.5122 -17.3785 -17.3716  -9.8454  -9.3722
    -9.0038  -8.9644  -8.8066  -8.5589  -8.0891  -7.8778  -7.6998  -7.5467
    -7.4374  -7.2597  -7.1572  -6.7326  -6.4295  -6.4045  -6.2897  -5.9705
    -3.8360  -3.7944  -3.6348  -3.5826  -3.4814  -3.4805  -2.9634  -2.8847
    -2.7977  -2.6852

     occupation numbers 
     1.0000   1.0000   1.0000   1.0000   1.0000   1.0000   1.0000   1.0000
     1.0000   1.0000   1.0000   1.0000   1.0000   1.0000   1.0000   1.0000
     1.0000   1.0000   1.0000   1.0000   1.0000   1.0000   1.0000   1.0000
     1.0000   1.0000   1.0000   1.0000   1.0000   1.0000   1.0000   1.0000
     0.0000   0.0000   0.0000   0.0000   0.0000   0.0000   0.0000   0.0000
     0.0000   0.0000

          k = 0.1250 0.3608 0.0000 ( 80906 PWs)   bands (ev):

   -74.4671 -74.4669 -46.2196 -46.2189 -46.1903 -46.1893 -46.1870 -46.1860
   -18.2596 -17.7017 -17.6440 -17.5590 -17.4120 -17.3877  -9.8070  -9.3448
    -9.0695  -8.9427  -8.7158  -8.3139  -8.1540  -7.7714  -7.7138  -7.5378
    -7.2472  -7.2162  -7.1515  -6.9574  -6.5977  -6.4484  -6.2948  -6.1027
    -3.8805  -3.8386  -3.6425  -3.5671  -3.4614  -3.4347  -2.9779  -2.8549
    -2.8053  -2.7211

     occupation numbers 
     1.0000   1.0000   1.0000   1.0000   1.0000   1.0000   1.0000   1.0000
     1.0000   1.0000   1.0000   1.0000   1.0000   1.0000   1.0000   1.0000
     1.0000   1.0000   1.0000   1.0000   1.0000   1.0000   1.0000   1.0000
     1.0000   1.0000   1.0000   1.0000   1.0000   1.0000   1.0000   1.0000
     0.0000   0.0000   0.0000   0.0000   0.0000   0.0000   0.0000   0.0000
     0.0000   0.0000

          k = 0.1250 0.5052 0.0000 ( 80936 PWs)   bands (ev):

   -74.4671 -74.4670 -46.2195 -46.2190 -46.1904 -46.1890 -46.1873 -46.1859
   -18.1188 -17.8536 -17.5865 -17.5678 -17.4677 -17.4013  -9.7889  -9.2575
    -9.1144  -8.7848  -8.5385  -8.4696  -8.2099  -7.8534  -7.6669  -7.5388
    -7.4177  -7.2301  -6.9056  -6.8403  -6.7203  -6.5279  -6.3082  -6.0753
    -3.9368  -3.9197  -3.6359  -3.5990  -3.4435  -3.3905  -2.9395  -2.8511
    -2.7542  -2.7435

     occupation numbers 
     1.0000   1.0000   1.0000   1.0000   1.0000   1.0000   1.0000   1.0000
     1.0000   1.0000   1.0000   1.0000   1.0000   1.0000   1.0000   1.0000
     1.0000   1.0000   1.0000   1.0000   1.0000   1.0000   1.0000   1.0000
     1.0000   1.0000   1.0000   1.0000   1.0000   1.0000   1.0000   1.0000
     0.0000   0.0000   0.0000   0.0000   0.0000   0.0000   0.0000   0.0000
     0.0000   0.0000

          k = 0.2500 0.4330 0.0000 ( 80941 PWs)   bands (ev):

   -74.4671 -74.4670 -46.2195 -46.2190 -46.1904 -46.1889 -46.1874 -46.1859
   -18.1315 -17.8101 -17.6248 -17.5774 -17.4469 -17.4055  -9.6694  -9.3555
    -8.9939  -8.9666  -8.5896  -8.4653  -8.2205  -7.8468  -7.6794  -7.5791
    -7.3785  -7.1301  -6.9975  -6.7860  -6.5650  -6.5324  -6.2584  -6.2214
    -3.9310  -3.8469  -3.7082  -3.6079  -3.4209  -3.4110  -2.9143  -2.8180
    -2.7590  -2.7400

     occupation numbers 
     1.0000   1.0000   1.0000   1.0000   1.0000   1.0000   1.0000   1.0000
     1.0000   1.0000   1.0000   1.0000   1.0000   1.0000   1.0000   1.0000
     1.0000   1.0000   1.0000   1.0000   1.0000   1.0000   1.0000   1.0000
     1.0000   1.0000   1.0000   1.0000   1.0000   1.0000   1.0000   1.0000
     0.0000   0.0000   0.0000   0.0000   0.0000   0.0000   0.0000   0.0000
     0.0000   0.0000

          k = 0.2500 0.5774 0.0000 ( 80992 PWs)   bands (ev):

   -74.4670 -74.4670 -46.2193 -46.2192 -46.1904 -46.1885 -46.1878 -46.1859
   -18.0212 -17.9120 -17.6519 -17.5225 -17.4859 -17.4163  -9.5856  -9.3402
    -8.9952  -8.8165  -8.7663  -8.4165  -8.2236  -8.1362  -7.6433  -7.6312
    -7.1558  -7.1048  -6.9599  -6.7024  -6.6151  -6.5815  -6.2715  -6.1996
    -3.9229  -3.8969  -3.7303  -3.6284  -3.4104  -3.3996  -2.8375  -2.8356
    -2.7674  -2.7016

     occupation numbers 
     1.0000   1.0000   1.0000   1.0000   1.0000   1.0000   1.0000   1.0000
     1.0000   1.0000   1.0000   1.0000   1.0000   1.0000   1.0000   1.0000
     1.0000   1.0000   1.0000   1.0000   1.0000   1.0000   1.0000   1.0000
     1.0000   1.0000   1.0000   1.0000   1.0000   1.0000   1.0000   1.0000
     0.0000   0.0000   0.0000   0.0000   0.0000   0.0000   0.0000   0.0000
     0.0000   0.0000

     the Fermi energy is    -4.9348 ev

!    total energy              =    -512.08878260 Ry
     estimated scf accuracy    <          1.2E-14 Ry
     smearing contrib. (-TS)   =      -0.00000000 Ry
     internal energy E=F+TS    =    -512.08878260 Ry

     The total energy is F=E-TS. E is the sum of the following terms:
     one-electron contribution =   -1703.12270516 Ry
     hartree contribution      =     845.80955611 Ry
     xc contribution           =     -99.95672396 Ry
     ewald contribution        =     445.18109040 Ry

     total magnetization       =     6.00 Bohr mag/cell
     absolute magnetization    =     7.13 Bohr mag/cell

     convergence has been achieved in  18 iterations

     Writing all to output data dir ./cri3_120Ry.save/
 
     init_run     :      4.75s CPU      4.99s WALL (       1 calls)
     electrons    :    189.85s CPU    193.62s WALL (       1 calls)

     Called by init_run:
     wfcinit      :      3.63s CPU      3.77s WALL (       1 calls)
     wfcinit:atom :      0.07s CPU      0.07s WALL (      20 calls)
     wfcinit:wfcr :      3.24s CPU      3.37s WALL (      20 calls)
     potinit      :      0.27s CPU      0.28s WALL (       1 calls)
     hinit0       :      0.45s CPU      0.50s WALL (       1 calls)

     Called by electrons:
     c_bands      :    169.50s CPU    172.66s WALL (      18 calls)
     sum_band     :     19.03s CPU     19.38s WALL (      18 calls)
     v_of_rho     :      0.35s CPU      0.36s WALL (      19 calls)
     v_h          :      0.09s CPU      0.09s WALL (      19 calls)
     v_xc         :      0.26s CPU      0.27s WALL (      19 calls)
     mix_rho      :      0.85s CPU      0.87s WALL (      18 calls)

     Called by c_bands:
     init_us_2    :      4.45s CPU      4.50s WALL (     740 calls)
     init_us_2:cp :      4.44s CPU      4.49s WALL (     740 calls)
     cegterg      :    151.07s CPU    154.15s WALL (     364 calls)

     Called by sum_band:
     sum_band:wei :      0.00s CPU      0.00s WALL (      18 calls)
     sum_band:loo :     18.68s CPU     19.02s WALL (      18 calls)
     sum_band:buf :      0.70s CPU      0.71s WALL (     360 calls)
     sum_band:ini :      2.07s CPU      2.09s WALL (     360 calls)

     Called by *egterg:
     cdiaghg      :      6.01s CPU      6.89s WALL (    2041 calls)
     cegterg:over :     11.02s CPU     11.14s WALL (    1681 calls)
     cegterg:upda :     11.91s CPU     12.09s WALL (    1681 calls)
     cegterg:last :     12.61s CPU     12.71s WALL (     938 calls)
     cdiaghg:chol :      0.48s CPU      0.49s WALL (    2041 calls)
     cdiaghg:inve :      0.18s CPU      0.19s WALL (    2041 calls)
     cdiaghg:para :      0.43s CPU      0.45s WALL (    4082 calls)
     h_psi        :    106.00s CPU    107.83s WALL (    2065 calls)
     g_psi        :      0.72s CPU      0.73s WALL (    1681 calls)

     Called by h_psi:
     h_psi:calbec :      9.28s CPU      9.36s WALL (    2065 calls)
     vloc_psi     :     85.11s CPU     86.72s WALL (    2065 calls)
     add_vuspsi   :      9.75s CPU      9.80s WALL (    2065 calls)

     General routines
     calbec       :      9.27s CPU      9.36s WALL (    2065 calls)
     fft          :      0.27s CPU      0.31s WALL (      93 calls)
     ffts         :      0.07s CPU      0.07s WALL (      36 calls)
     fftw         :     77.07s CPU     78.53s WALL (  111434 calls)
 
     Parallel routines
 
     PWSCF        :   3m15.22s CPU   3m26.74s WALL

 
   This run was terminated on:  14:55:20  10Jan2024            

=------------------------------------------------------------------------------=
   JOB DONE.
=------------------------------------------------------------------------------=
