
     Program PWSCF v.7.0 starts on 16Jan2024 at 10:20:28 

     This program is part of the open-source Quantum ESPRESSO suite
     for quantum simulation of materials; please cite
         "P. Giannozzi et al., J. Phys.:Condens. Matter 21 395502 (2009);
         "P. Giannozzi et al., J. Phys.:Condens. Matter 29 465901 (2017);
         "P. Giannozzi et al., J. Chem. Phys. 152 154105 (2020);
          URL http://www.quantum-espresso.org", 
     in publications or presentations arising from this work. More details at
     http://www.quantum-espresso.org/quote

     Parallel version (MPI), running on    12 processors

     MPI processes distributed on     1 nodes
     R & G space division:  proc/nbgrp/npool/nimage =      12
     98376 MiB available memory on the printing compute node when the environment starts
 
     Reading input from cri3-exp-nosoc_50Ry_k8x8x1.scf.in

     Current dimensions of program PWSCF are:
     Max number of different atomic species (ntypx) = 10
     Max number of k-points (npk) =  40000
     Max angular momentum in pseudopotentials (lmaxx) =  4

     Subspace diagonalization in iterative solution of the eigenvalue problem:
     one sub-group per band group will be used
     scalapack distributed-memory algorithm (size of sub-group:  3*  3 procs)

 
     Parallelization info
     --------------------
     sticks:   dense  smooth     PW     G-vecs:    dense   smooth      PW
     Min         194     194     53                14518    14518    2061
     Max         195     195     54                14525    14525    2066
     Sum        2335    2335    637               174251   174251   24755
 
     Using Slab Decomposition
 


     bravais-lattice index     =            4
     lattice parameter (alat)  =      12.9767  a.u.
     unit-cell volume          =    3645.8815 (a.u.)^3
     number of atoms/cell      =            8
     number of atomic types    =            2
     number of electrons       =       112.00
     number of Kohn-Sham states=           67
     kinetic-energy cutoff     =      50.0000  Ry
     charge density cutoff     =     200.0000  Ry
     scf convergence threshold =      1.0E-13
     mixing beta               =       0.7000
     number of iterations used =            8  plain     mixing
     Exchange-correlation= PZ
                           (   1   1   0   0   0   0   0)

     celldm(1)=  12.976749  celldm(2)=   0.000000  celldm(3)=   1.926523
     celldm(4)=   0.000000  celldm(5)=   0.000000  celldm(6)=   0.000000

     crystal axes: (cart. coord. in units of alat)
               a(1) = (   1.000000   0.000000   0.000000 )  
               a(2) = (  -0.500000   0.866025   0.000000 )  
               a(3) = (   0.000000   0.000000   1.926523 )  

     reciprocal axes: (cart. coord. in units 2 pi/alat)
               b(1) = (  1.000000  0.577350  0.000000 )  
               b(2) = (  0.000000  1.154701  0.000000 )  
               b(3) = (  0.000000  0.000000  0.519070 )  


     PseudoPot. # 1 for Cr read from file:
     ./Cr_Alejandro.upf
     MD5 check sum: 19f8874af457815d5c8e16c7b8c57f71
     Pseudo is Norm-conserving + core correction, Zval = 14.0
     Generated using ONCVPSP code by D. R. Hamann
     Using radial grid of 1600 points,  6 beta functions with: 
                l(1) =   0
                l(2) =   0
                l(3) =   1
                l(4) =   1
                l(5) =   2
                l(6) =   2

     PseudoPot. # 2 for Cr read from file:
     ./I_Alejandro.upf
     MD5 check sum: 19f8874af457815d5c8e16c7b8c57f71
     Pseudo is Norm-conserving + core correction, Zval = 14.0
     Generated using ONCVPSP code by D. R. Hamann
     Using radial grid of 1600 points,  6 beta functions with: 
                l(1) =   0
                l(2) =   0
                l(3) =   1
                l(4) =   1
                l(5) =   2
                l(6) =   2

     atomic species   valence    mass     pseudopotential
        Cr            14.00    51.99000     Cr( 1.00)
        I             14.00   126.90000     Cr( 1.00)

     Starting magnetic structure 
     atomic species   magnetization
        Cr           1.000
        I            0.000

     12 Sym. Ops., with inversion, found ( 6 have fractional translation)


                                    s                        frac. trans.

      isym =  1     identity                                     

 cryst.   s( 1) = (     1          0          0      )
                  (     0          1          0      )
                  (     0          0          1      )

 cart.    s( 1) = (  1.0000000  0.0000000  0.0000000 )
                  (  0.0000000  1.0000000  0.0000000 )
                  (  0.0000000  0.0000000  1.0000000 )


      isym =  2     180 deg rotation - cart. axis [0,1,0]        

 cryst.   s( 2) = (    -1          0          0      )
                  (     1          1          0      )
                  (     0          0         -1      )

 cart.    s( 2) = ( -1.0000000  0.0000000  0.0000000 )
                  (  0.0000000  1.0000000  0.0000000 )
                  (  0.0000000  0.0000000 -1.0000000 )


      isym =  3     120 deg rotation - cryst. axis [0,0,1]       

 cryst.   s( 3) = (     0          1          0      )
                  (    -1         -1          0      )
                  (     0          0          1      )

 cart.    s( 3) = ( -0.5000000 -0.8660254  0.0000000 )
                  (  0.8660254 -0.5000000  0.0000000 )
                  (  0.0000000  0.0000000  1.0000000 )


      isym =  4     120 deg rotation - cryst. axis [0,0,-1]      

 cryst.   s( 4) = (    -1         -1          0      )
                  (     1          0          0      )
                  (     0          0          1      )

 cart.    s( 4) = ( -0.5000000  0.8660254  0.0000000 )
                  ( -0.8660254 -0.5000000  0.0000000 )
                  (  0.0000000  0.0000000  1.0000000 )


      isym =  5     180 deg rotation - cryst. axis [1,-1,0]      

 cryst.   s( 5) = (     0         -1          0      )
                  (    -1          0          0      )
                  (     0          0         -1      )

 cart.    s( 5) = (  0.5000000 -0.8660254  0.0000000 )
                  ( -0.8660254 -0.5000000  0.0000000 )
                  (  0.0000000  0.0000000 -1.0000000 )


      isym =  6     180 deg rotation - cryst. axis [2,1,0]       

 cryst.   s( 6) = (     1          1          0      )
                  (     0         -1          0      )
                  (     0          0         -1      )

 cart.    s( 6) = (  0.5000000  0.8660254  0.0000000 )
                  (  0.8660254 -0.5000000  0.0000000 )
                  (  0.0000000  0.0000000 -1.0000000 )


      isym =  7     inversion                                    

 cryst.   s( 7) = (    -1          0          0      )    f =( -0.3333333 )
                  (     0         -1          0      )       (  0.3333333 )
                  (     0          0         -1      )       (  0.0000000 )

 cart.    s( 7) = ( -1.0000000  0.0000000  0.0000000 )    f =( -0.5000000 )
                  (  0.0000000 -1.0000000  0.0000000 )       (  0.2886751 )
                  (  0.0000000  0.0000000 -1.0000000 )       (  0.0000000 )


      isym =  8     inv. 180 deg rotation - cart. axis [0,1,0]   

 cryst.   s( 8) = (     1          0          0      )    f =( -0.3333333 )
                  (    -1         -1          0      )       (  0.3333333 )
                  (     0          0          1      )       (  0.0000000 )

 cart.    s( 8) = (  1.0000000  0.0000000  0.0000000 )    f =( -0.5000000 )
                  (  0.0000000 -1.0000000  0.0000000 )       (  0.2886751 )
                  (  0.0000000  0.0000000  1.0000000 )       (  0.0000000 )


      isym =  9     inv. 120 deg rotation - cryst. axis [0,0,1]  

 cryst.   s( 9) = (     0         -1          0      )    f =( -0.3333333 )
                  (     1          1          0      )       (  0.3333333 )
                  (     0          0         -1      )       (  0.0000000 )

 cart.    s( 9) = (  0.5000000  0.8660254  0.0000000 )    f =( -0.5000000 )
                  ( -0.8660254  0.5000000  0.0000000 )       (  0.2886751 )
                  (  0.0000000  0.0000000 -1.0000000 )       (  0.0000000 )


      isym = 10     inv. 120 deg rotation - cryst. axis [0,0,-1] 

 cryst.   s(10) = (     1          1          0      )    f =( -0.3333333 )
                  (    -1          0          0      )       (  0.3333333 )
                  (     0          0         -1      )       (  0.0000000 )

 cart.    s(10) = (  0.5000000 -0.8660254  0.0000000 )    f =( -0.5000000 )
                  (  0.8660254  0.5000000  0.0000000 )       (  0.2886751 )
                  (  0.0000000  0.0000000 -1.0000000 )       (  0.0000000 )


      isym = 11     inv. 180 deg rotation - cryst. axis [1,-1,0] 

 cryst.   s(11) = (     0          1          0      )    f =( -0.3333333 )
                  (     1          0          0      )       (  0.3333333 )
                  (     0          0          1      )       (  0.0000000 )

 cart.    s(11) = ( -0.5000000  0.8660254  0.0000000 )    f =( -0.5000000 )
                  (  0.8660254  0.5000000  0.0000000 )       (  0.2886751 )
                  (  0.0000000  0.0000000  1.0000000 )       (  0.0000000 )


      isym = 12     inv. 180 deg rotation - cryst. axis [2,1,0]  

 cryst.   s(12) = (    -1         -1          0      )    f =( -0.3333333 )
                  (     0          1          0      )       (  0.3333333 )
                  (     0          0          1      )       (  0.0000000 )

 cart.    s(12) = ( -0.5000000 -0.8660254  0.0000000 )    f =( -0.5000000 )
                  ( -0.8660254  0.5000000  0.0000000 )       (  0.2886751 )
                  (  0.0000000  0.0000000  1.0000000 )       (  0.0000000 )


     point group D_3d (-3m) 
     there are  6 classes
     the character table:

       E     2C3   3C2'  i     2S6   3s_d 
A_1g   1.00  1.00  1.00  1.00  1.00  1.00
A_2g   1.00  1.00 -1.00  1.00  1.00 -1.00
E_g    2.00 -1.00  0.00  2.00 -1.00  0.00
A_1u   1.00  1.00  1.00 -1.00 -1.00 -1.00
A_2u   1.00  1.00 -1.00 -1.00 -1.00  1.00
E_u    2.00 -1.00  0.00 -2.00  1.00  0.00

     the symmetry operations in each class and the name of the first element:

     E        1
          identity                                               
     2C3      3    4
          120 deg rotation - cryst. axis [0,0,1]                 
     3C2'     2    6    5
          180 deg rotation - cart. axis [0,1,0]                  
     i        7
          inversion                                              
     2S6      9   10
          inv. 120 deg rotation - cryst. axis [0,0,1]            
     3s_d     8   12   11
          inv. 180 deg rotation - cart. axis [0,1,0]             

   Cartesian axes

     site n.     atom                  positions (alat units)
         1           Cr  tau(   1) = (   0.0000000   0.0000000   0.0000000  )
         2           Cr  tau(   2) = (   0.0000000   0.5773503   0.0000000  )
         3           I   tau(   3) = (  -0.1753225   0.8510331   0.2277694  )
         4           I   tau(   4) = (   0.3246775   0.5923426   0.2277694  )
         5           I   tau(   5) = (  -0.1493550   0.2886751   0.2277694  )
         6           I   tau(   6) = (  -0.3246775   0.5923426  -0.2277694  )
         7           I   tau(   7) = (   0.1753225   0.8510331  -0.2277694  )
         8           I   tau(   8) = (   0.1493550   0.2886751  -0.2277694  )

   Crystallographic axes

     site n.     atom                  positions (cryst. coord.)
         1           Cr  tau(   1) = (  0.0000000  0.0000000  0.0000000  )
         2           Cr  tau(   2) = (  0.3333333  0.6666667  0.0000000  )
         3           I   tau(   3) = (  0.3160217  0.9826883  0.1182283  )
         4           I   tau(   4) = (  0.6666667  0.6839783  0.1182283  )
         5           I   tau(   5) = (  0.0173117  0.3333333  0.1182283  )
         6           I   tau(   6) = (  0.0173117  0.6839783 -0.1182283  )
         7           I   tau(   7) = (  0.6666667  0.9826883 -0.1182283  )
         8           I   tau(   8) = (  0.3160217  0.3333333 -0.1182283  )

     number of k points=    10  Gaussian smearing, width (Ry)=  0.0050
                       cart. coord. in units 2pi/alat
        k(    1) = (   0.0000000   0.0000000   0.0000000), wk =   0.0156250
        k(    2) = (   0.0000000   0.1443376   0.0000000), wk =   0.0937500
        k(    3) = (   0.0000000   0.2886751   0.0000000), wk =   0.0937500
        k(    4) = (   0.0000000   0.4330127   0.0000000), wk =   0.0937500
        k(    5) = (   0.0000000  -0.5773503   0.0000000), wk =   0.0468750
        k(    6) = (   0.1250000   0.2165064   0.0000000), wk =   0.0937500
        k(    7) = (   0.1250000   0.3608439   0.0000000), wk =   0.1875000
        k(    8) = (   0.1250000   0.5051815   0.0000000), wk =   0.1875000
        k(    9) = (   0.2500000   0.4330127   0.0000000), wk =   0.0937500
        k(   10) = (   0.2500000   0.5773503   0.0000000), wk =   0.0937500

                       cryst. coord.
        k(    1) = (   0.0000000   0.0000000   0.0000000), wk =   0.0156250
        k(    2) = (   0.0000000   0.1250000   0.0000000), wk =   0.0937500
        k(    3) = (   0.0000000   0.2500000   0.0000000), wk =   0.0937500
        k(    4) = (   0.0000000   0.3750000   0.0000000), wk =   0.0937500
        k(    5) = (   0.0000000  -0.5000000   0.0000000), wk =   0.0468750
        k(    6) = (   0.1250000   0.1250000   0.0000000), wk =   0.0937500
        k(    7) = (   0.1250000   0.2500000   0.0000000), wk =   0.1875000
        k(    8) = (   0.1250000   0.3750000   0.0000000), wk =   0.1875000
        k(    9) = (   0.2500000   0.2500000   0.0000000), wk =   0.0937500
        k(   10) = (   0.2500000   0.3750000   0.0000000), wk =   0.0937500

     Dense  grid:   174251 G-vectors     FFT dimensions: (  60,  60, 120)

     Dynamical RAM for                 wfc:       1.85 MB

     Dynamical RAM for     wfc (w. buffer):      38.92 MB

     Dynamical RAM for           str. fact:       0.44 MB

     Dynamical RAM for           local pot:       0.00 MB

     Dynamical RAM for          nlocal pot:       3.98 MB

     Dynamical RAM for                qrad:       2.27 MB

     Dynamical RAM for          rho,v,vnew:       2.98 MB

     Dynamical RAM for               rhoin:       0.99 MB

     Dynamical RAM for            rho*nmix:       7.09 MB

     Dynamical RAM for           G-vectors:       0.94 MB

     Dynamical RAM for          h,s,v(r/c):       0.09 MB

     Dynamical RAM for          <psi|beta>:       0.15 MB

     Dynamical RAM for                 psi:       3.71 MB

     Dynamical RAM for                hpsi:       3.71 MB

     Dynamical RAM for      wfcinit/wfcrot:       4.57 MB

     Estimated static dynamical RAM per process >      52.85 MB

     Estimated max dynamical RAM per process >      67.59 MB

     Estimated total dynamical RAM >     811.06 MB
 ----2D----2D----2D----2D----2D----2D----2D----2D----2D----2D----2D----2D
  The code is running with the 2D cutoff
  Please refer to:
  Sohier, T., Calandra, M., & Mauri, F. (2017), 
  Density functional perturbation theory for gated two-dimensional heterostructu
 res:
  Theoretical developments and application to flexural phonons in graphene.
  Physical Review B, 96(7), 75448. https://doi.org/10.1103/PhysRevB.96.075448
 ----2D----2D----2D----2D----2D----2D----2D----2D----2D----2D----2D----2D

     Check: negative core charge=   -0.000067
     Generating pointlists ...
     new r_m :   0.1637 (alat units)  2.1245 (a.u.) for type    1
     new r_m :   0.1637 (alat units)  2.1245 (a.u.) for type    2

     Initial potential from superposition of free atoms

     starting charge     111.9912, renormalised to     112.0000

     negative rho (up, down):  2.091E-03 1.201E-03
     Starting wfcs are   80 randomized atomic wfcs

     total cpu time spent up to now is        2.6 secs

     Self-consistent Calculation

     iteration #  1     ecut=    50.00 Ry     beta= 0.70
     Davidson diagonalization with overlap

---- Real-time Memory Report at c_bands before calling an iterative solver
           191 MiB given to the printing process from OS
             0 MiB allocation reported by mallinfo(arena+hblkhd)
         97478 MiB available memory on the node where the printing process lives
------------------
     c_bands:  1 eigenvalues not converged
     c_bands:  1 eigenvalues not converged
     c_bands:  2 eigenvalues not converged
     c_bands:  5 eigenvalues not converged
     c_bands:  2 eigenvalues not converged
     c_bands:  1 eigenvalues not converged
     c_bands:  1 eigenvalues not converged
     c_bands:  1 eigenvalues not converged
     c_bands:  2 eigenvalues not converged
     ethr =  5.00E-06,  avg # of iterations = 21.9

     negative rho (up, down):  4.567E-04 2.765E-04

     total cpu time spent up to now is       21.8 secs

     total energy              =   -1411.30662162 Ry
     estimated scf accuracy    <      12.12622687 Ry

     total magnetization       =    10.09 Bohr mag/cell
     absolute magnetization    =    11.28 Bohr mag/cell

     iteration #  2     ecut=    50.00 Ry     beta= 0.70
     Davidson diagonalization with overlap

---- Real-time Memory Report at c_bands before calling an iterative solver
           220 MiB given to the printing process from OS
             0 MiB allocation reported by mallinfo(arena+hblkhd)
         95155 MiB available memory on the node where the printing process lives
------------------
     ethr =  1.00E-02,  avg # of iterations =  7.4

     negative rho (up, down):  3.510E-04 2.066E-04

     total cpu time spent up to now is       31.2 secs

     total energy              =   -1410.23781083 Ry
     estimated scf accuracy    <      95.81418080 Ry

     total magnetization       =    -2.83 Bohr mag/cell
     absolute magnetization    =     3.26 Bohr mag/cell

     iteration #  3     ecut=    50.00 Ry     beta= 0.70
     Davidson diagonalization with overlap

---- Real-time Memory Report at c_bands before calling an iterative solver
           222 MiB given to the printing process from OS
             0 MiB allocation reported by mallinfo(arena+hblkhd)
         92976 MiB available memory on the node where the printing process lives
------------------
     ethr =  1.00E-02,  avg # of iterations =  6.9

     negative rho (up, down):  4.722E-05 4.410E-05

     total cpu time spent up to now is       40.4 secs

     total energy              =   -1416.44023501 Ry
     estimated scf accuracy    <       1.50931603 Ry

     total magnetization       =     3.03 Bohr mag/cell
     absolute magnetization    =    13.96 Bohr mag/cell

     iteration #  4     ecut=    50.00 Ry     beta= 0.70
     Davidson diagonalization with overlap

---- Real-time Memory Report at c_bands before calling an iterative solver
           224 MiB given to the printing process from OS
             0 MiB allocation reported by mallinfo(arena+hblkhd)
         91854 MiB available memory on the node where the printing process lives
------------------
     ethr =  1.35E-03,  avg # of iterations =  8.1

     total cpu time spent up to now is       50.8 secs

     total energy              =   -1416.99693317 Ry
     estimated scf accuracy    <       3.09457216 Ry

     total magnetization       =    -4.60 Bohr mag/cell
     absolute magnetization    =    17.09 Bohr mag/cell

     iteration #  5     ecut=    50.00 Ry     beta= 0.70
     Davidson diagonalization with overlap

---- Real-time Memory Report at c_bands before calling an iterative solver
           226 MiB given to the printing process from OS
             0 MiB allocation reported by mallinfo(arena+hblkhd)
         91439 MiB available memory on the node where the printing process lives
------------------
     ethr =  1.35E-03,  avg # of iterations =  7.9

     total cpu time spent up to now is       60.8 secs

     total energy              =   -1417.85855945 Ry
     estimated scf accuracy    <       4.26811231 Ry

     total magnetization       =   -11.10 Bohr mag/cell
     absolute magnetization    =    23.78 Bohr mag/cell

     iteration #  6     ecut=    50.00 Ry     beta= 0.70
     Davidson diagonalization with overlap

---- Real-time Memory Report at c_bands before calling an iterative solver
           227 MiB given to the printing process from OS
             0 MiB allocation reported by mallinfo(arena+hblkhd)
         91404 MiB available memory on the node where the printing process lives
------------------
     ethr =  1.35E-03,  avg # of iterations =  1.4

     total cpu time spent up to now is       66.1 secs

     total energy              =   -1417.95711781 Ry
     estimated scf accuracy    <       2.02589113 Ry

     total magnetization       =   -14.32 Bohr mag/cell
     absolute magnetization    =    26.33 Bohr mag/cell

     iteration #  7     ecut=    50.00 Ry     beta= 0.70
     Davidson diagonalization with overlap

---- Real-time Memory Report at c_bands before calling an iterative solver
           229 MiB given to the printing process from OS
             0 MiB allocation reported by mallinfo(arena+hblkhd)
         91383 MiB available memory on the node where the printing process lives
------------------
     ethr =  1.35E-03,  avg # of iterations =  1.0

     total cpu time spent up to now is       71.1 secs

     total energy              =   -1418.20508960 Ry
     estimated scf accuracy    <       1.64044693 Ry

     total magnetization       =   -15.26 Bohr mag/cell
     absolute magnetization    =    27.11 Bohr mag/cell

     iteration #  8     ecut=    50.00 Ry     beta= 0.70
     Davidson diagonalization with overlap

---- Real-time Memory Report at c_bands before calling an iterative solver
           230 MiB given to the printing process from OS
             0 MiB allocation reported by mallinfo(arena+hblkhd)
         91379 MiB available memory on the node where the printing process lives
------------------
     ethr =  1.35E-03,  avg # of iterations =  1.4

     negative rho (up, down):  2.047E-02 1.751E-05

     total cpu time spent up to now is       76.4 secs

     total energy              =   -1417.24288792 Ry
     estimated scf accuracy    <       1.65160618 Ry

     total magnetization       =   -17.05 Bohr mag/cell
     absolute magnetization    =    29.03 Bohr mag/cell

     iteration #  9     ecut=    50.00 Ry     beta= 0.70
     Davidson diagonalization with overlap

---- Real-time Memory Report at c_bands before calling an iterative solver
           230 MiB given to the printing process from OS
             0 MiB allocation reported by mallinfo(arena+hblkhd)
         91513 MiB available memory on the node where the printing process lives
------------------
     ethr =  1.35E-03,  avg # of iterations =  7.5

     negative rho (up, down):  5.299E-05 2.697E-09

     total cpu time spent up to now is       86.1 secs

     total energy              =   -1418.28258678 Ry
     estimated scf accuracy    <       2.07269762 Ry

     total magnetization       =   -22.00 Bohr mag/cell
     absolute magnetization    =    31.90 Bohr mag/cell

     iteration # 10     ecut=    50.00 Ry     beta= 0.70
     Davidson diagonalization with overlap

---- Real-time Memory Report at c_bands before calling an iterative solver
           232 MiB given to the printing process from OS
             0 MiB allocation reported by mallinfo(arena+hblkhd)
         91328 MiB available memory on the node where the printing process lives
------------------
     ethr =  1.35E-03,  avg # of iterations =  2.0

     negative rho (up, down):  3.661E-08 0.000E+00

     total cpu time spent up to now is       91.8 secs

     total energy              =   -1418.38799091 Ry
     estimated scf accuracy    <       0.24817329 Ry

     total magnetization       =   -20.91 Bohr mag/cell
     absolute magnetization    =    33.22 Bohr mag/cell

     iteration # 11     ecut=    50.00 Ry     beta= 0.70
     Davidson diagonalization with overlap

---- Real-time Memory Report at c_bands before calling an iterative solver
           233 MiB given to the printing process from OS
             0 MiB allocation reported by mallinfo(arena+hblkhd)
         91302 MiB available memory on the node where the printing process lives
------------------
     ethr =  2.22E-04,  avg # of iterations =  6.1

     total cpu time spent up to now is       99.8 secs

     total energy              =   -1418.41236092 Ry
     estimated scf accuracy    <       0.03326180 Ry

     total magnetization       =   -20.29 Bohr mag/cell
     absolute magnetization    =    33.33 Bohr mag/cell

     iteration # 12     ecut=    50.00 Ry     beta= 0.70
     Davidson diagonalization with overlap

---- Real-time Memory Report at c_bands before calling an iterative solver
           233 MiB given to the printing process from OS
             0 MiB allocation reported by mallinfo(arena+hblkhd)
         91301 MiB available memory on the node where the printing process lives
------------------
     c_bands:  3 eigenvalues not converged
     c_bands:  2 eigenvalues not converged
     c_bands:  4 eigenvalues not converged
     c_bands:  5 eigenvalues not converged
     ethr =  2.97E-05,  avg # of iterations = 11.7

     total cpu time spent up to now is      111.8 secs

     total energy              =   -1418.42410857 Ry
     estimated scf accuracy    <       0.00166385 Ry

     total magnetization       =   -20.07 Bohr mag/cell
     absolute magnetization    =    33.22 Bohr mag/cell

     iteration # 13     ecut=    50.00 Ry     beta= 0.70
     Davidson diagonalization with overlap

---- Real-time Memory Report at c_bands before calling an iterative solver
           233 MiB given to the printing process from OS
             0 MiB allocation reported by mallinfo(arena+hblkhd)
         91450 MiB available memory on the node where the printing process lives
------------------
     c_bands:  1 eigenvalues not converged
     c_bands:  2 eigenvalues not converged
     c_bands:  4 eigenvalues not converged
     c_bands:  3 eigenvalues not converged
     c_bands:  1 eigenvalues not converged
     c_bands:  4 eigenvalues not converged
     c_bands:  5 eigenvalues not converged
     c_bands:  3 eigenvalues not converged
     c_bands:  5 eigenvalues not converged
     ethr =  1.49E-06,  avg # of iterations = 15.1

     total cpu time spent up to now is      126.1 secs

     total energy              =   -1418.42358483 Ry
     estimated scf accuracy    <       0.01001751 Ry

     total magnetization       =   -19.92 Bohr mag/cell
     absolute magnetization    =    33.30 Bohr mag/cell

     iteration # 14     ecut=    50.00 Ry     beta= 0.70
     Davidson diagonalization with overlap

---- Real-time Memory Report at c_bands before calling an iterative solver
           233 MiB given to the printing process from OS
             0 MiB allocation reported by mallinfo(arena+hblkhd)
         91259 MiB available memory on the node where the printing process lives
------------------
     c_bands:  2 eigenvalues not converged
     c_bands:  2 eigenvalues not converged
     c_bands:  2 eigenvalues not converged
     c_bands:  2 eigenvalues not converged
     c_bands:  3 eigenvalues not converged
     c_bands:  4 eigenvalues not converged
     ethr =  1.49E-06,  avg # of iterations = 11.1

     total cpu time spent up to now is      137.7 secs

     total energy              =   -1418.42539865 Ry
     estimated scf accuracy    <       0.00200830 Ry

     total magnetization       =   -20.17 Bohr mag/cell
     absolute magnetization    =    33.30 Bohr mag/cell

     iteration # 15     ecut=    50.00 Ry     beta= 0.70
     Davidson diagonalization with overlap

---- Real-time Memory Report at c_bands before calling an iterative solver
           233 MiB given to the printing process from OS
             0 MiB allocation reported by mallinfo(arena+hblkhd)
         91241 MiB available memory on the node where the printing process lives
------------------
     c_bands:  1 eigenvalues not converged
     c_bands:  1 eigenvalues not converged
     c_bands:  1 eigenvalues not converged
     ethr =  1.49E-06,  avg # of iterations =  6.5

     total cpu time spent up to now is      145.1 secs

     total energy              =   -1418.42551789 Ry
     estimated scf accuracy    <       0.00019319 Ry

     total magnetization       =   -20.11 Bohr mag/cell
     absolute magnetization    =    33.33 Bohr mag/cell

     iteration # 16     ecut=    50.00 Ry     beta= 0.70
     Davidson diagonalization with overlap

---- Real-time Memory Report at c_bands before calling an iterative solver
           234 MiB given to the printing process from OS
             0 MiB allocation reported by mallinfo(arena+hblkhd)
         91208 MiB available memory on the node where the printing process lives
------------------
     c_bands:  1 eigenvalues not converged
     c_bands:  1 eigenvalues not converged
     c_bands:  2 eigenvalues not converged
     c_bands:  2 eigenvalues not converged
     c_bands:  2 eigenvalues not converged
     c_bands:  4 eigenvalues not converged
     c_bands:  2 eigenvalues not converged
     c_bands:  4 eigenvalues not converged
     c_bands:  4 eigenvalues not converged
     ethr =  1.72E-07,  avg # of iterations = 13.0

     total cpu time spent up to now is      156.4 secs

     total energy              =   -1418.42557235 Ry
     estimated scf accuracy    <       0.00003587 Ry

     total magnetization       =   -20.11 Bohr mag/cell
     absolute magnetization    =    33.31 Bohr mag/cell

     iteration # 17     ecut=    50.00 Ry     beta= 0.70
     Davidson diagonalization with overlap

---- Real-time Memory Report at c_bands before calling an iterative solver
           234 MiB given to the printing process from OS
             0 MiB allocation reported by mallinfo(arena+hblkhd)
         91194 MiB available memory on the node where the printing process lives
------------------
     c_bands:  1 eigenvalues not converged
     c_bands:  1 eigenvalues not converged
     c_bands:  3 eigenvalues not converged
     c_bands:  3 eigenvalues not converged
     c_bands:  1 eigenvalues not converged
     c_bands:  2 eigenvalues not converged
     c_bands:  2 eigenvalues not converged
     c_bands:  3 eigenvalues not converged
     c_bands:  4 eigenvalues not converged
     c_bands:  4 eigenvalues not converged
     ethr =  3.20E-08,  avg # of iterations = 12.9

     total cpu time spent up to now is      167.5 secs

     total energy              =   -1418.42557480 Ry
     estimated scf accuracy    <       0.00002362 Ry

     total magnetization       =   -20.12 Bohr mag/cell
     absolute magnetization    =    33.31 Bohr mag/cell

     iteration # 18     ecut=    50.00 Ry     beta= 0.70
     Davidson diagonalization with overlap

---- Real-time Memory Report at c_bands before calling an iterative solver
           234 MiB given to the printing process from OS
             0 MiB allocation reported by mallinfo(arena+hblkhd)
         91179 MiB available memory on the node where the printing process lives
------------------
     c_bands:  1 eigenvalues not converged
     c_bands:  2 eigenvalues not converged
     c_bands:  1 eigenvalues not converged
     c_bands:  1 eigenvalues not converged
     c_bands:  1 eigenvalues not converged
     c_bands:  2 eigenvalues not converged
     c_bands:  2 eigenvalues not converged
     ethr =  2.11E-08,  avg # of iterations = 10.2

     total cpu time spent up to now is      176.4 secs

     total energy              =   -1418.42557499 Ry
     estimated scf accuracy    <       0.00001380 Ry

     total magnetization       =   -20.12 Bohr mag/cell
     absolute magnetization    =    33.30 Bohr mag/cell

     iteration # 19     ecut=    50.00 Ry     beta= 0.70
     Davidson diagonalization with overlap

---- Real-time Memory Report at c_bands before calling an iterative solver
           234 MiB given to the printing process from OS
             0 MiB allocation reported by mallinfo(arena+hblkhd)
         91125 MiB available memory on the node where the printing process lives
------------------
     c_bands:  1 eigenvalues not converged
     c_bands:  1 eigenvalues not converged
     c_bands:  1 eigenvalues not converged
     c_bands:  1 eigenvalues not converged
     c_bands:  3 eigenvalues not converged
     c_bands:  2 eigenvalues not converged
     ethr =  1.23E-08,  avg # of iterations =  7.8

     total cpu time spent up to now is      184.0 secs

     total energy              =   -1418.42557594 Ry
     estimated scf accuracy    <       0.00000108 Ry

     total magnetization       =   -20.12 Bohr mag/cell
     absolute magnetization    =    33.30 Bohr mag/cell

     iteration # 20     ecut=    50.00 Ry     beta= 0.70
     Davidson diagonalization with overlap

---- Real-time Memory Report at c_bands before calling an iterative solver
           234 MiB given to the printing process from OS
             0 MiB allocation reported by mallinfo(arena+hblkhd)
         91117 MiB available memory on the node where the printing process lives
------------------
     c_bands:  3 eigenvalues not converged
     c_bands:  3 eigenvalues not converged
     c_bands:  4 eigenvalues not converged
     c_bands:  3 eigenvalues not converged
     c_bands:  4 eigenvalues not converged
     c_bands:  2 eigenvalues not converged
     c_bands:  2 eigenvalues not converged
     c_bands:  2 eigenvalues not converged
     c_bands:  3 eigenvalues not converged
     c_bands:  4 eigenvalues not converged
     c_bands:  1 eigenvalues not converged
     ethr =  9.66E-10,  avg # of iterations = 15.9

     total cpu time spent up to now is      199.4 secs

     total energy              =   -1418.42557668 Ry
     estimated scf accuracy    <       0.00000017 Ry

     total magnetization       =   -20.12 Bohr mag/cell
     absolute magnetization    =    33.30 Bohr mag/cell

     iteration # 21     ecut=    50.00 Ry     beta= 0.70
     Davidson diagonalization with overlap

---- Real-time Memory Report at c_bands before calling an iterative solver
           234 MiB given to the printing process from OS
             0 MiB allocation reported by mallinfo(arena+hblkhd)
         91117 MiB available memory on the node where the printing process lives
------------------
     c_bands:  2 eigenvalues not converged
     c_bands:  3 eigenvalues not converged
     c_bands:  3 eigenvalues not converged
     c_bands:  2 eigenvalues not converged
     c_bands:  4 eigenvalues not converged
     c_bands:  2 eigenvalues not converged
     c_bands:  4 eigenvalues not converged
     c_bands:  3 eigenvalues not converged
     c_bands:  3 eigenvalues not converged
     c_bands:  4 eigenvalues not converged
     c_bands:  1 eigenvalues not converged
     ethr =  1.56E-10,  avg # of iterations = 14.0

     total cpu time spent up to now is      212.3 secs

     total energy              =   -1418.42557675 Ry
     estimated scf accuracy    <       0.00000006 Ry

     total magnetization       =   -20.12 Bohr mag/cell
     absolute magnetization    =    33.30 Bohr mag/cell

     iteration # 22     ecut=    50.00 Ry     beta= 0.70
     Davidson diagonalization with overlap

---- Real-time Memory Report at c_bands before calling an iterative solver
           234 MiB given to the printing process from OS
             0 MiB allocation reported by mallinfo(arena+hblkhd)
         91107 MiB available memory on the node where the printing process lives
------------------
     c_bands:  2 eigenvalues not converged
     c_bands:  2 eigenvalues not converged
     c_bands:  3 eigenvalues not converged
     c_bands:  2 eigenvalues not converged
     c_bands:  3 eigenvalues not converged
     c_bands:  2 eigenvalues not converged
     c_bands:  2 eigenvalues not converged
     c_bands:  3 eigenvalues not converged
     c_bands:  3 eigenvalues not converged
     c_bands:  4 eigenvalues not converged
     ethr =  5.00E-11,  avg # of iterations = 13.3

     total cpu time spent up to now is      223.4 secs

     total energy              =   -1418.42557675 Ry
     estimated scf accuracy    <       0.00000001 Ry

     total magnetization       =   -20.12 Bohr mag/cell
     absolute magnetization    =    33.30 Bohr mag/cell

     iteration # 23     ecut=    50.00 Ry     beta= 0.70
     Davidson diagonalization with overlap

---- Real-time Memory Report at c_bands before calling an iterative solver
           235 MiB given to the printing process from OS
             0 MiB allocation reported by mallinfo(arena+hblkhd)
         91107 MiB available memory on the node where the printing process lives
------------------
     c_bands:  2 eigenvalues not converged
     c_bands:  1 eigenvalues not converged
     c_bands:  3 eigenvalues not converged
     c_bands:  2 eigenvalues not converged
     c_bands:  3 eigenvalues not converged
     c_bands:  2 eigenvalues not converged
     c_bands:  3 eigenvalues not converged
     c_bands:  3 eigenvalues not converged
     c_bands:  3 eigenvalues not converged
     c_bands:  4 eigenvalues not converged
     ethr =  1.15E-11,  avg # of iterations = 13.8

     total cpu time spent up to now is      235.7 secs

     total energy              =   -1418.42557676 Ry
     estimated scf accuracy    <       0.00000001 Ry

     total magnetization       =   -20.12 Bohr mag/cell
     absolute magnetization    =    33.30 Bohr mag/cell

     iteration # 24     ecut=    50.00 Ry     beta= 0.70
     Davidson diagonalization with overlap

---- Real-time Memory Report at c_bands before calling an iterative solver
           235 MiB given to the printing process from OS
             0 MiB allocation reported by mallinfo(arena+hblkhd)
         91067 MiB available memory on the node where the printing process lives
------------------
     c_bands:  1 eigenvalues not converged
     c_bands:  1 eigenvalues not converged
     c_bands:  2 eigenvalues not converged
     c_bands:  2 eigenvalues not converged
     c_bands:  2 eigenvalues not converged
     c_bands:  1 eigenvalues not converged
     c_bands:  2 eigenvalues not converged
     c_bands:  1 eigenvalues not converged
     c_bands:  3 eigenvalues not converged
     c_bands:  3 eigenvalues not converged
     ethr =  1.08E-11,  avg # of iterations = 11.0

     total cpu time spent up to now is      245.1 secs

     total energy              =   -1418.42557676 Ry
     estimated scf accuracy    <          2.6E-09 Ry

     total magnetization       =   -20.12 Bohr mag/cell
     absolute magnetization    =    33.30 Bohr mag/cell

     iteration # 25     ecut=    50.00 Ry     beta= 0.70
     Davidson diagonalization with overlap

---- Real-time Memory Report at c_bands before calling an iterative solver
           235 MiB given to the printing process from OS
             0 MiB allocation reported by mallinfo(arena+hblkhd)
         91062 MiB available memory on the node where the printing process lives
------------------
     c_bands:  2 eigenvalues not converged
     c_bands:  4 eigenvalues not converged
     c_bands:  3 eigenvalues not converged
     c_bands:  2 eigenvalues not converged
     c_bands:  3 eigenvalues not converged
     c_bands:  2 eigenvalues not converged
     c_bands:  3 eigenvalues not converged
     c_bands:  2 eigenvalues not converged
     c_bands:  3 eigenvalues not converged
     c_bands:  3 eigenvalues not converged
     ethr =  2.31E-12,  avg # of iterations = 13.5

     total cpu time spent up to now is      257.3 secs

     total energy              =   -1418.42557676 Ry
     estimated scf accuracy    <          1.0E-10 Ry

     total magnetization       =   -20.12 Bohr mag/cell
     absolute magnetization    =    33.30 Bohr mag/cell

     iteration # 26     ecut=    50.00 Ry     beta= 0.70
     Davidson diagonalization with overlap

---- Real-time Memory Report at c_bands before calling an iterative solver
           235 MiB given to the printing process from OS
             0 MiB allocation reported by mallinfo(arena+hblkhd)
         91059 MiB available memory on the node where the printing process lives
------------------
     c_bands:  4 eigenvalues not converged
     c_bands:  4 eigenvalues not converged
     c_bands:  5 eigenvalues not converged
     c_bands:  4 eigenvalues not converged
     c_bands:  3 eigenvalues not converged
     c_bands:  3 eigenvalues not converged
     c_bands:  5 eigenvalues not converged
     c_bands:  3 eigenvalues not converged
     c_bands:  3 eigenvalues not converged
     c_bands:  4 eigenvalues not converged
     ethr =  1.00E-13,  avg # of iterations = 14.9

     total cpu time spent up to now is      271.7 secs

     total energy              =   -1418.42557676 Ry
     estimated scf accuracy    <          7.1E-11 Ry

     total magnetization       =   -20.12 Bohr mag/cell
     absolute magnetization    =    33.30 Bohr mag/cell

     iteration # 27     ecut=    50.00 Ry     beta= 0.70
     Davidson diagonalization with overlap

---- Real-time Memory Report at c_bands before calling an iterative solver
           235 MiB given to the printing process from OS
             0 MiB allocation reported by mallinfo(arena+hblkhd)
         91053 MiB available memory on the node where the printing process lives
------------------
     c_bands:  1 eigenvalues not converged
     c_bands:  1 eigenvalues not converged
     c_bands:  3 eigenvalues not converged
     c_bands:  2 eigenvalues not converged
     c_bands:  3 eigenvalues not converged
     c_bands:  2 eigenvalues not converged
     c_bands:  2 eigenvalues not converged
     c_bands:  3 eigenvalues not converged
     c_bands:  3 eigenvalues not converged
     c_bands:  3 eigenvalues not converged
     ethr =  1.00E-13,  avg # of iterations = 12.8

     total cpu time spent up to now is      282.4 secs

     total energy              =   -1418.42557676 Ry
     estimated scf accuracy    <          3.8E-12 Ry

     total magnetization       =   -20.12 Bohr mag/cell
     absolute magnetization    =    33.30 Bohr mag/cell

     iteration # 28     ecut=    50.00 Ry     beta= 0.70
     Davidson diagonalization with overlap

---- Real-time Memory Report at c_bands before calling an iterative solver
           235 MiB given to the printing process from OS
             0 MiB allocation reported by mallinfo(arena+hblkhd)
         91052 MiB available memory on the node where the printing process lives
------------------
     c_bands:  1 eigenvalues not converged
     c_bands:  1 eigenvalues not converged
     c_bands:  2 eigenvalues not converged
     c_bands:  4 eigenvalues not converged
     c_bands:  3 eigenvalues not converged
     c_bands:  1 eigenvalues not converged
     c_bands:  2 eigenvalues not converged
     c_bands:  1 eigenvalues not converged
     c_bands:  3 eigenvalues not converged
     c_bands:  3 eigenvalues not converged
     ethr =  1.00E-13,  avg # of iterations = 10.5

     total cpu time spent up to now is      290.7 secs

     total energy              =   -1418.42557676 Ry
     estimated scf accuracy    <          9.5E-13 Ry

     total magnetization       =   -20.12 Bohr mag/cell
     absolute magnetization    =    33.30 Bohr mag/cell

     iteration # 29     ecut=    50.00 Ry     beta= 0.70
     Davidson diagonalization with overlap

---- Real-time Memory Report at c_bands before calling an iterative solver
           235 MiB given to the printing process from OS
             0 MiB allocation reported by mallinfo(arena+hblkhd)
         91011 MiB available memory on the node where the printing process lives
------------------
     c_bands:  2 eigenvalues not converged
     c_bands:  2 eigenvalues not converged
     c_bands:  3 eigenvalues not converged
     c_bands:  1 eigenvalues not converged
     c_bands:  2 eigenvalues not converged
     c_bands:  1 eigenvalues not converged
     c_bands:  3 eigenvalues not converged
     c_bands:  2 eigenvalues not converged
     ethr =  1.00E-13,  avg # of iterations =  9.3
 
     Magnetic moment per site  (integrated on atomic sphere of radius R)
     atom   1 (R=0.164)  charge= 12.4240  magn=  3.0981
     atom   2 (R=0.164)  charge= 12.4240  magn=  3.0981
     atom   3 (R=0.164)  charge= 12.3127  magn= -3.8160
     atom   4 (R=0.164)  charge= 12.3127  magn= -3.8160
     atom   5 (R=0.164)  charge= 12.3127  magn= -3.8160
     atom   6 (R=0.164)  charge= 12.3127  magn= -3.8160
     atom   7 (R=0.164)  charge= 12.3127  magn= -3.8160
     atom   8 (R=0.164)  charge= 12.3127  magn= -3.8160

     total cpu time spent up to now is      298.5 secs

     End of self-consistent calculation

 ------ SPIN UP ------------


          k = 0.0000 0.0000 0.0000 ( 21831 PWs)   bands (ev):

   -76.0972 -76.0925 -72.4909 -72.4909 -72.4902 -72.4902 -72.4878 -72.4862
   -47.7926 -47.7926 -47.7915 -47.7915 -47.7855 -47.7846 -44.2050 -44.1992
   -44.1982 -44.1982 -44.1971 -44.1971 -44.1859 -44.1814 -44.1814 -44.1787
   -44.1782 -44.1782 -44.1066 -44.1042 -44.1042 -44.1037 -44.1035 -44.1035
    -7.4783  -5.0452  -4.8350  -4.8350  -4.7730  -4.7277  -4.7077  -4.7077
    -4.6217  -4.6217  -4.5390  -4.5390  -3.9342  -3.2995  -3.2995  -2.7465
    -2.3557  -2.2641  -2.2641  -1.7468  -1.5325  -1.5325  -1.4871  -1.3960
    -1.3960  -1.3489  -1.3064  -1.2350  -1.2350  -1.2006  -1.1024  -0.8182
    -0.8153  -0.8153  -0.7396

     occupation numbers 
     1.0000   1.0000   1.0000   1.0000   1.0000   1.0000   1.0000   1.0000
     1.0000   1.0000   1.0000   1.0000   1.0000   1.0000   1.0000   1.0000
     1.0000   1.0000   1.0000   1.0000   1.0000   1.0000   1.0000   1.0000
     1.0000   1.0000   1.0000   1.0000   1.0000   1.0000   1.0000   1.0000
     1.0000   1.0000   1.0000   1.0000   1.0000   1.0000   1.0000   1.0000
     1.0000   1.0000   1.0000   1.0000   1.0000   0.0000   0.0000   0.0000
     0.0000   0.0000   0.0000   0.0000   0.0000   0.0000   0.0000   0.0000
     0.0000   0.0000   0.0000   0.0000   0.0000   0.0000   0.0000   0.0000
     0.0000   0.0000   0.0000

          k = 0.0000 0.1443 0.0000 ( 21773 PWs)   bands (ev):

   -76.0949 -76.0913 -72.4898 -72.4890 -72.4885 -72.4875 -72.4865 -72.4848
   -47.7914 -47.7910 -47.7909 -47.7903 -47.7845 -47.7840 -44.2037 -44.1982
   -44.1972 -44.1969 -44.1958 -44.1949 -44.1844 -44.1807 -44.1806 -44.1775
   -44.1772 -44.1768 -44.1057 -44.1033 -44.1032 -44.1029 -44.1025 -44.1023
    -7.4161  -5.0433  -5.0242  -4.8187  -4.7602  -4.7154  -4.6977  -4.6782
    -4.6344  -4.6274  -4.5098  -4.4707  -3.9891  -3.4392  -3.2726  -2.8043
    -2.4797  -2.0989  -2.0650  -1.7802  -1.5577  -1.5431  -1.5028  -1.4117
    -1.4067  -1.3178  -1.2597  -1.2166  -1.2096  -1.2001  -1.0135  -0.8356
    -0.8056  -0.7945  -0.7262

     occupation numbers 
     1.0000   1.0000   1.0000   1.0000   1.0000   1.0000   1.0000   1.0000
     1.0000   1.0000   1.0000   1.0000   1.0000   1.0000   1.0000   1.0000
     1.0000   1.0000   1.0000   1.0000   1.0000   1.0000   1.0000   1.0000
     1.0000   1.0000   1.0000   1.0000   1.0000   1.0000   1.0000   1.0000
     1.0000   1.0000   1.0000   1.0000   1.0000   1.0000   1.0000   1.0000
     1.0000   1.0000   1.0000   1.0000   1.0000   0.0377   0.0000   0.0000
     0.0000   0.0000   0.0000   0.0000   0.0000   0.0000   0.0000   0.0000
     0.0000   0.0000   0.0000   0.0000   0.0000   0.0000   0.0000   0.0000
     0.0000   0.0000   0.0000

          k = 0.0000 0.2887 0.0000 ( 21759 PWs)   bands (ev):

   -76.0940 -76.0913 -72.4898 -72.4892 -72.4868 -72.4868 -72.4857 -72.4854
   -47.7911 -47.7906 -47.7905 -47.7898 -47.7845 -47.7841 -44.2016 -44.1994
   -44.1960 -44.1959 -44.1954 -44.1952 -44.1835 -44.1816 -44.1813 -44.1769
   -44.1763 -44.1761 -44.1047 -44.1037 -44.1034 -44.1028 -44.1024 -44.1022
    -7.2361  -5.4345  -4.9765  -4.8490  -4.8193  -4.7521  -4.7059  -4.6729
    -4.5953  -4.5590  -4.4859  -4.3215  -4.0501  -3.7216  -3.3643  -2.7298
    -2.6570  -1.9553  -1.8579  -1.8169  -1.6359  -1.5303  -1.5154  -1.4536
    -1.4390  -1.2484  -1.2418  -1.1867  -1.1704  -1.1468  -0.9028  -0.8585
    -0.8059  -0.7722  -0.7220

     occupation numbers 
     1.0000   1.0000   1.0000   1.0000   1.0000   1.0000   1.0000   1.0000
     1.0000   1.0000   1.0000   1.0000   1.0000   1.0000   1.0000   1.0000
     1.0000   1.0000   1.0000   1.0000   1.0000   1.0000   1.0000   1.0000
     1.0000   1.0000   1.0000   1.0000   1.0000   1.0000   1.0000   1.0000
     1.0000   1.0000   1.0000   1.0000   1.0000   1.0000   1.0000   1.0000
     1.0000   1.0000   1.0000   1.0000   1.0000   1.0000   0.0004   0.0000
     0.0000   0.0000   0.0000   0.0000   0.0000   0.0000   0.0000   0.0000
     0.0000   0.0000   0.0000   0.0000   0.0000   0.0000   0.0000   0.0000
     0.0000   0.0000   0.0000

          k = 0.0000 0.4330 0.0000 ( 21736 PWs)   bands (ev):

   -76.0928 -76.0910 -72.4899 -72.4883 -72.4859 -72.4856 -72.4849 -72.4848
   -47.7908 -47.7902 -47.7896 -47.7891 -47.7845 -47.7838 -44.2004 -44.1991
   -44.1959 -44.1958 -44.1946 -44.1938 -44.1822 -44.1810 -44.1809 -44.1768
   -44.1762 -44.1756 -44.1044 -44.1041 -44.1028 -44.1024 -44.1020 -44.1019
    -6.9641  -5.8891  -4.9314  -4.9241  -4.8200  -4.7937  -4.7252  -4.6556
    -4.5618  -4.4792  -4.4186  -4.1054  -4.0666  -3.9784  -3.4650  -3.0966
    -2.4105  -1.9967  -1.8322  -1.8068  -1.6294  -1.4981  -1.4938  -1.4725
    -1.4379  -1.2472  -1.1784  -1.1584  -1.1047  -1.0509  -0.9686  -0.7990
    -0.7761  -0.7582  -0.7504

     occupation numbers 
     1.0000   1.0000   1.0000   1.0000   1.0000   1.0000   1.0000   1.0000
     1.0000   1.0000   1.0000   1.0000   1.0000   1.0000   1.0000   1.0000
     1.0000   1.0000   1.0000   1.0000   1.0000   1.0000   1.0000   1.0000
     1.0000   1.0000   1.0000   1.0000   1.0000   1.0000   1.0000   1.0000
     1.0000   1.0000   1.0000   1.0000   1.0000   1.0000   1.0000   1.0000
     1.0000   1.0000   1.0000   1.0000   1.0000   1.0000   0.1069   0.0000
     0.0000   0.0000   0.0000   0.0000   0.0000   0.0000   0.0000   0.0000
     0.0000   0.0000   0.0000   0.0000   0.0000   0.0000   0.0000   0.0000
     0.0000   0.0000   0.0000

          k = 0.0000-0.5774 0.0000 ( 21764 PWs)   bands (ev):

   -76.0940 -76.0913 -72.4898 -72.4889 -72.4877 -72.4861 -72.4858 -72.4854
   -47.7910 -47.7901 -47.7899 -47.7889 -47.7855 -47.7850 -44.1988 -44.1987
   -44.1972 -44.1968 -44.1942 -44.1935 -44.1822 -44.1819 -44.1808 -44.1778
   -44.1770 -44.1761 -44.1059 -44.1050 -44.1033 -44.1033 -44.1030 -44.1024
    -6.7594  -6.1638  -4.9529  -4.9220  -4.8285  -4.8075  -4.7357  -4.6581
    -4.5543  -4.4853  -4.2572  -4.2195  -4.0698  -3.8927  -3.5026  -3.3469
    -2.2667  -2.0185  -1.9368  -1.7906  -1.6273  -1.5082  -1.4540  -1.4423
    -1.4385  -1.2295  -1.1914  -1.1379  -1.0550  -1.0281  -1.0076  -0.7977
    -0.7884  -0.7645  -0.7456

     occupation numbers 
     1.0000   1.0000   1.0000   1.0000   1.0000   1.0000   1.0000   1.0000
     1.0000   1.0000   1.0000   1.0000   1.0000   1.0000   1.0000   1.0000
     1.0000   1.0000   1.0000   1.0000   1.0000   1.0000   1.0000   1.0000
     1.0000   1.0000   1.0000   1.0000   1.0000   1.0000   1.0000   1.0000
     1.0000   1.0000   1.0000   1.0000   1.0000   1.0000   1.0000   1.0000
     1.0000   1.0000   1.0000   1.0000   1.0000   1.0000   0.3223   0.0001
     0.0000   0.0000   0.0000   0.0000   0.0000   0.0000   0.0000   0.0000
     0.0000   0.0000   0.0000   0.0000   0.0000   0.0000   0.0000   0.0000
     0.0000   0.0000   0.0000

          k = 0.1250 0.2165 0.0000 ( 21799 PWs)   bands (ev):

   -76.0942 -76.0934 -72.4908 -72.4895 -72.4892 -72.4873 -72.4870 -72.4866
   -47.7921 -47.7920 -47.7908 -47.7905 -47.7854 -47.7839 -44.2031 -44.1998
   -44.1972 -44.1969 -44.1967 -44.1955 -44.1839 -44.1825 -44.1814 -44.1779
   -44.1778 -44.1768 -44.1054 -44.1041 -44.1040 -44.1036 -44.1031 -44.1026
    -7.2948  -5.3106  -4.9915  -4.8492  -4.7747  -4.7337  -4.7316  -4.7035
    -4.6231  -4.5906  -4.4725  -4.3817  -4.0404  -3.7126  -3.1923  -2.8267
    -2.6085  -1.9518  -1.9232  -1.8494  -1.5837  -1.5615  -1.5198  -1.4588
    -1.4241  -1.2741  -1.2381  -1.2060  -1.1886  -1.1753  -0.9081  -0.8822
    -0.8098  -0.7836  -0.7293

     occupation numbers 
     1.0000   1.0000   1.0000   1.0000   1.0000   1.0000   1.0000   1.0000
     1.0000   1.0000   1.0000   1.0000   1.0000   1.0000   1.0000   1.0000
     1.0000   1.0000   1.0000   1.0000   1.0000   1.0000   1.0000   1.0000
     1.0000   1.0000   1.0000   1.0000   1.0000   1.0000   1.0000   1.0000
     1.0000   1.0000   1.0000   1.0000   1.0000   1.0000   1.0000   1.0000
     1.0000   1.0000   1.0000   1.0000   1.0000   1.0000   0.0000   0.0000
     0.0000   0.0000   0.0000   0.0000   0.0000   0.0000   0.0000   0.0000
     0.0000   0.0000   0.0000   0.0000   0.0000   0.0000   0.0000   0.0000
     0.0000   0.0000   0.0000

          k = 0.1250 0.3608 0.0000 ( 21770 PWs)   bands (ev):

   -76.0941 -76.0918 -72.4901 -72.4889 -72.4876 -72.4874 -72.4860 -72.4853
   -47.7916 -47.7911 -47.7903 -47.7900 -47.7845 -47.7841 -44.2013 -44.1990
   -44.1972 -44.1966 -44.1958 -44.1948 -44.1834 -44.1816 -44.1809 -44.1776
   -44.1772 -44.1764 -44.1051 -44.1038 -44.1034 -44.1029 -44.1025 -44.1024
    -7.0652  -5.7094  -4.9510  -4.9140  -4.8118  -4.7641  -4.7392  -4.6832
    -4.5934  -4.5529  -4.4194  -4.2048  -4.0591  -3.9767  -3.2440  -2.8941
    -2.6309  -2.0691  -1.8170  -1.7589  -1.6168  -1.5412  -1.5227  -1.4761
    -1.4342  -1.2448  -1.2009  -1.1683  -1.1268  -1.0983  -0.9508  -0.8149
    -0.7992  -0.7604  -0.7417

     occupation numbers 
     1.0000   1.0000   1.0000   1.0000   1.0000   1.0000   1.0000   1.0000
     1.0000   1.0000   1.0000   1.0000   1.0000   1.0000   1.0000   1.0000
     1.0000   1.0000   1.0000   1.0000   1.0000   1.0000   1.0000   1.0000
     1.0000   1.0000   1.0000   1.0000   1.0000   1.0000   1.0000   1.0000
     1.0000   1.0000   1.0000   1.0000   1.0000   1.0000   1.0000   1.0000
     1.0000   1.0000   1.0000   1.0000   1.0000   1.0000   0.0000   0.0000
     0.0000   0.0000   0.0000   0.0000   0.0000   0.0000   0.0000   0.0000
     0.0000   0.0000   0.0000   0.0000   0.0000   0.0000   0.0000   0.0000
     0.0000   0.0000   0.0000

          k = 0.1250 0.5052 0.0000 ( 21769 PWs)   bands (ev):

   -76.0934 -76.0922 -72.4898 -72.4882 -72.4880 -72.4870 -72.4866 -72.4852
   -47.7914 -47.7911 -47.7901 -47.7899 -47.7845 -47.7840 -44.2001 -44.1990
   -44.1978 -44.1973 -44.1953 -44.1944 -44.1828 -44.1817 -44.1812 -44.1776
   -44.1770 -44.1762 -44.1052 -44.1038 -44.1034 -44.1029 -44.1023 -44.1021
    -6.7820  -6.1019  -4.9817  -4.9141  -4.8342  -4.7951  -4.7533  -4.6575
    -4.5651  -4.5403  -4.3411  -4.2091  -4.0618  -3.9162  -3.3824  -3.1643
    -2.4039  -2.1841  -1.8804  -1.7303  -1.6003  -1.5200  -1.4859  -1.4700
    -1.4413  -1.2292  -1.1869  -1.1420  -1.0754  -1.0260  -1.0032  -0.8061
    -0.7812  -0.7728  -0.7540

     occupation numbers 
     1.0000   1.0000   1.0000   1.0000   1.0000   1.0000   1.0000   1.0000
     1.0000   1.0000   1.0000   1.0000   1.0000   1.0000   1.0000   1.0000
     1.0000   1.0000   1.0000   1.0000   1.0000   1.0000   1.0000   1.0000
     1.0000   1.0000   1.0000   1.0000   1.0000   1.0000   1.0000   1.0000
     1.0000   1.0000   1.0000   1.0000   1.0000   1.0000   1.0000   1.0000
     1.0000   1.0000   1.0000   1.0000   1.0000   1.0000   0.0015   0.0000
     0.0000   0.0000   0.0000   0.0000   0.0000   0.0000   0.0000   0.0000
     0.0000   0.0000   0.0000   0.0000   0.0000   0.0000   0.0000   0.0000
     0.0000   0.0000   0.0000

          k = 0.2500 0.4330 0.0000 ( 21735 PWs)   bands (ev):

   -76.0930 -76.0907 -72.4880 -72.4879 -72.4874 -72.4858 -72.4853 -72.4847
   -47.7905 -47.7905 -47.7898 -47.7895 -47.7839 -47.7836 -44.1993 -44.1982
   -44.1974 -44.1963 -44.1949 -44.1941 -44.1820 -44.1812 -44.1797 -44.1772
   -44.1764 -44.1762 -44.1043 -44.1034 -44.1031 -44.1022 -44.1017 -44.1014
    -6.8022  -6.0364  -5.0070  -4.9132  -4.8260  -4.7834  -4.7539  -4.6907
    -4.6236  -4.5307  -4.3570  -4.2088  -4.0495  -3.9369  -3.2988  -2.7921
    -2.7240  -2.2908  -1.8659  -1.6420  -1.5844  -1.5402  -1.5198  -1.4691
    -1.4523  -1.2219  -1.1781  -1.1356  -1.0543  -1.0541  -0.9883  -0.8113
    -0.7826  -0.7494  -0.7443

     occupation numbers 
     1.0000   1.0000   1.0000   1.0000   1.0000   1.0000   1.0000   1.0000
     1.0000   1.0000   1.0000   1.0000   1.0000   1.0000   1.0000   1.0000
     1.0000   1.0000   1.0000   1.0000   1.0000   1.0000   1.0000   1.0000
     1.0000   1.0000   1.0000   1.0000   1.0000   1.0000   1.0000   1.0000
     1.0000   1.0000   1.0000   1.0000   1.0000   1.0000   1.0000   1.0000
     1.0000   1.0000   1.0000   1.0000   1.0000   1.0000   0.0000   0.0000
     0.0000   0.0000   0.0000   0.0000   0.0000   0.0000   0.0000   0.0000
     0.0000   0.0000   0.0000   0.0000   0.0000   0.0000   0.0000   0.0000
     0.0000   0.0000   0.0000

          k = 0.2500 0.5774 0.0000 ( 21742 PWs)   bands (ev):

   -76.0929 -76.0911 -72.4882 -72.4872 -72.4872 -72.4864 -72.4862 -72.4847
   -47.7909 -47.7901 -47.7895 -47.7895 -47.7844 -47.7838 -44.1988 -44.1983
   -44.1973 -44.1968 -44.1951 -44.1937 -44.1824 -44.1809 -44.1808 -44.1766
   -44.1765 -44.1760 -44.1046 -44.1035 -44.1029 -44.1027 -44.1022 -44.1016
    -6.5704  -6.2902  -5.0657  -4.9005  -4.8289  -4.7854  -4.7830  -4.6601
    -4.6557  -4.5263  -4.3161  -4.2805  -4.0434  -3.7283  -3.4865  -2.8426
    -2.5121  -2.4897  -1.9139  -1.6127  -1.5492  -1.5211  -1.5059  -1.4994
    -1.4703  -1.2006  -1.1840  -1.1405  -1.0482  -1.0229  -0.9910  -0.7975
    -0.7818  -0.7659  -0.7550

     occupation numbers 
     1.0000   1.0000   1.0000   1.0000   1.0000   1.0000   1.0000   1.0000
     1.0000   1.0000   1.0000   1.0000   1.0000   1.0000   1.0000   1.0000
     1.0000   1.0000   1.0000   1.0000   1.0000   1.0000   1.0000   1.0000
     1.0000   1.0000   1.0000   1.0000   1.0000   1.0000   1.0000   1.0000
     1.0000   1.0000   1.0000   1.0000   1.0000   1.0000   1.0000   1.0000
     1.0000   1.0000   1.0000   1.0000   1.0000   1.0000   0.2131   0.0000
     0.0000   0.0000   0.0000   0.0000   0.0000   0.0000   0.0000   0.0000
     0.0000   0.0000   0.0000   0.0000   0.0000   0.0000   0.0000   0.0000
     0.0000   0.0000   0.0000

 ------ SPIN DOWN ----------


          k = 0.0000 0.0000 0.0000 ( 21831 PWs)   bands (ev):

   -76.1218 -76.1218 -76.1211 -76.1211 -76.1189 -76.1168 -73.1226 -73.1184
   -47.8680 -47.8668 -47.8668 -47.8666 -47.8648 -47.8648 -47.8457 -47.8451
   -47.8418 -47.8418 -47.8389 -47.8389 -47.8367 -47.8362 -47.8362 -47.8333
   -47.8333 -47.8332 -44.7779 -44.7779 -44.7766 -44.7755 -44.7755 -44.7750
    -7.9184  -6.1368  -5.3973  -5.1151  -5.1151  -4.9849  -4.9849  -4.8068
    -4.7455  -4.6954  -4.6954  -4.6186  -4.5445  -4.5445  -4.4958  -4.4958
    -4.4662  -4.4286  -4.4286  -4.4032  -4.3888  -4.3755  -4.3755  -4.2289
    -4.1687  -4.0900  -4.0402  -4.0402  -4.0018  -4.0018  -3.9681  -3.9681
    -3.4189  -3.4189  -3.1027

     occupation numbers 
     1.0000   1.0000   1.0000   1.0000   1.0000   1.0000   1.0000   1.0000
     1.0000   1.0000   1.0000   1.0000   1.0000   1.0000   1.0000   1.0000
     1.0000   1.0000   1.0000   1.0000   1.0000   1.0000   1.0000   1.0000
     1.0000   1.0000   1.0000   1.0000   1.0000   1.0000   1.0000   1.0000
     1.0000   1.0000   1.0000   1.0000   1.0000   1.0000   1.0000   1.0000
     1.0000   1.0000   1.0000   1.0000   1.0000   1.0000   1.0000   1.0000
     1.0000   1.0000   1.0000   1.0000   1.0000   1.0000   1.0000   1.0000
     1.0000   1.0000   1.0000   1.0000   1.0000   1.0000   1.0000   1.0000
     0.0139   0.0139   0.0000

          k = 0.0000 0.1443 0.0000 ( 21773 PWs)   bands (ev):

   -76.1207 -76.1199 -76.1193 -76.1183 -76.1174 -76.1155 -73.1204 -73.1172
   -47.8668 -47.8663 -47.8657 -47.8645 -47.8641 -47.8634 -47.8446 -47.8441
   -47.8409 -47.8407 -47.8381 -47.8377 -47.8362 -47.8357 -47.8355 -47.8325
   -47.8324 -47.8317 -44.7764 -44.7759 -44.7758 -44.7750 -44.7743 -44.7741
    -7.8525  -6.0755  -5.5389  -5.1739  -5.1109  -4.9998  -4.9684  -4.8229
    -4.7480  -4.6883  -4.6833  -4.6051  -4.5455  -4.5263  -4.5135  -4.5012
    -4.4661  -4.4352  -4.4175  -4.3749  -4.3720  -4.3585  -4.3451  -4.2376
    -4.1256  -4.0829  -4.0390  -4.0314  -4.0175  -3.9938  -3.9705  -3.9560
    -3.4049  -3.3732  -3.2912

     occupation numbers 
     1.0000   1.0000   1.0000   1.0000   1.0000   1.0000   1.0000   1.0000
     1.0000   1.0000   1.0000   1.0000   1.0000   1.0000   1.0000   1.0000
     1.0000   1.0000   1.0000   1.0000   1.0000   1.0000   1.0000   1.0000
     1.0000   1.0000   1.0000   1.0000   1.0000   1.0000   1.0000   1.0000
     1.0000   1.0000   1.0000   1.0000   1.0000   1.0000   1.0000   1.0000
     1.0000   1.0000   1.0000   1.0000   1.0000   1.0000   1.0000   1.0000
     1.0000   1.0000   1.0000   1.0000   1.0000   1.0000   1.0000   1.0000
     1.0000   1.0000   1.0000   1.0000   1.0000   1.0000   1.0000   1.0000
     0.0064   0.0008   0.0000

          k = 0.0000 0.2887 0.0000 ( 21759 PWs)   bands (ev):

   -76.1206 -76.1200 -76.1176 -76.1175 -76.1163 -76.1163 -73.1196 -73.1172
   -47.8669 -47.8667 -47.8648 -47.8636 -47.8632 -47.8631 -47.8450 -47.8424
   -47.8401 -47.8399 -47.8385 -47.8379 -47.8367 -47.8363 -47.8361 -47.8325
   -47.8317 -47.8311 -44.7761 -44.7758 -44.7747 -44.7745 -44.7743 -44.7742
    -7.6606  -5.9005  -5.8933  -5.2986  -5.1889  -5.0349  -4.9513  -4.8769
    -4.7499  -4.7031  -4.6453  -4.6197  -4.6081  -4.5824  -4.5137  -4.4833
    -4.4497  -4.4454  -4.4061  -4.3627  -4.3548  -4.3217  -4.2879  -4.2284
    -4.1003  -4.0870  -4.0679  -4.0469  -3.9966  -3.9811  -3.9697  -3.9440
    -3.6842  -3.3958  -3.3725

     occupation numbers 
     1.0000   1.0000   1.0000   1.0000   1.0000   1.0000   1.0000   1.0000
     1.0000   1.0000   1.0000   1.0000   1.0000   1.0000   1.0000   1.0000
     1.0000   1.0000   1.0000   1.0000   1.0000   1.0000   1.0000   1.0000
     1.0000   1.0000   1.0000   1.0000   1.0000   1.0000   1.0000   1.0000
     1.0000   1.0000   1.0000   1.0000   1.0000   1.0000   1.0000   1.0000
     1.0000   1.0000   1.0000   1.0000   1.0000   1.0000   1.0000   1.0000
     1.0000   1.0000   1.0000   1.0000   1.0000   1.0000   1.0000   1.0000
     1.0000   1.0000   1.0000   1.0000   1.0000   1.0000   1.0000   1.0000
     0.9995   0.0037   0.0008

          k = 0.0000 0.4330 0.0000 ( 21736 PWs)   bands (ev):

   -76.1208 -76.1191 -76.1165 -76.1165 -76.1156 -76.1154 -73.1185 -73.1168
   -47.8663 -47.8656 -47.8646 -47.8631 -47.8626 -47.8626 -47.8437 -47.8414
   -47.8401 -47.8395 -47.8379 -47.8376 -47.8374 -47.8363 -47.8344 -47.8325
   -47.8317 -47.8313 -44.7755 -44.7752 -44.7746 -44.7743 -44.7740 -44.7731
    -7.3631  -6.3457  -5.6270  -5.4057  -5.2920  -5.0939  -4.9674  -4.8774
    -4.8756  -4.7361  -4.6802  -4.6128  -4.6060  -4.5527  -4.5167  -4.4970
    -4.4822  -4.4408  -4.3771  -4.3432  -4.3111  -4.2554  -4.1845  -4.1813
    -4.1303  -4.0992  -4.0969  -4.0033  -3.9625  -3.9498  -3.9273  -3.9210
    -3.9173  -3.6007  -3.4932

     occupation numbers 
     1.0000   1.0000   1.0000   1.0000   1.0000   1.0000   1.0000   1.0000
     1.0000   1.0000   1.0000   1.0000   1.0000   1.0000   1.0000   1.0000
     1.0000   1.0000   1.0000   1.0000   1.0000   1.0000   1.0000   1.0000
     1.0000   1.0000   1.0000   1.0000   1.0000   1.0000   1.0000   1.0000
     1.0000   1.0000   1.0000   1.0000   1.0000   1.0000   1.0000   1.0000
     1.0000   1.0000   1.0000   1.0000   1.0000   1.0000   1.0000   1.0000
     1.0000   1.0000   1.0000   1.0000   1.0000   1.0000   1.0000   1.0000
     1.0000   1.0000   1.0000   1.0000   1.0000   1.0000   1.0000   1.0000
     1.0000   0.9427   0.2557

          k = 0.0000-0.5774 0.0000 ( 21764 PWs)   bands (ev):

   -76.1206 -76.1197 -76.1186 -76.1168 -76.1165 -76.1160 -73.1197 -73.1171
   -47.8665 -47.8660 -47.8636 -47.8631 -47.8628 -47.8628 -47.8430 -47.8423
   -47.8410 -47.8393 -47.8384 -47.8383 -47.8377 -47.8377 -47.8351 -47.8332
   -47.8328 -47.8324 -44.7770 -44.7756 -44.7755 -44.7743 -44.7742 -44.7729
    -7.1136  -6.6592  -5.4502  -5.3406  -5.3361  -5.2275  -5.1122  -4.8963
    -4.8905  -4.7251  -4.7138  -4.6094  -4.5642  -4.5599  -4.5559  -4.5215
    -4.4990  -4.4435  -4.3855  -4.3383  -4.2254  -4.2139  -4.1659  -4.1448
    -4.1426  -4.1207  -4.1019  -4.0432  -4.0033  -3.9912  -3.8889  -3.8848
    -3.8310  -3.7633  -3.6248

     occupation numbers 
     1.0000   1.0000   1.0000   1.0000   1.0000   1.0000   1.0000   1.0000
     1.0000   1.0000   1.0000   1.0000   1.0000   1.0000   1.0000   1.0000
     1.0000   1.0000   1.0000   1.0000   1.0000   1.0000   1.0000   1.0000
     1.0000   1.0000   1.0000   1.0000   1.0000   1.0000   1.0000   1.0000
     1.0000   1.0000   1.0000   1.0000   1.0000   1.0000   1.0000   1.0000
     1.0000   1.0000   1.0000   1.0000   1.0000   1.0000   1.0000   1.0000
     1.0000   1.0000   1.0000   1.0000   1.0000   1.0000   1.0000   1.0000
     1.0000   1.0000   1.0000   1.0000   1.0000   1.0000   1.0000   1.0000
     1.0000   1.0000   0.9812

          k = 0.1250 0.2165 0.0000 ( 21799 PWs)   bands (ev):

   -76.1217 -76.1203 -76.1200 -76.1182 -76.1177 -76.1174 -73.1198 -73.1193
   -47.8681 -47.8665 -47.8658 -47.8645 -47.8645 -47.8637 -47.8456 -47.8434
   -47.8412 -47.8409 -47.8395 -47.8383 -47.8367 -47.8366 -47.8363 -47.8330
   -47.8320 -47.8320 -44.7764 -44.7764 -44.7756 -44.7755 -44.7752 -44.7752
    -7.7236  -5.9584  -5.7697  -5.3314  -5.0995  -5.0138  -4.9825  -4.8908
    -4.7586  -4.6928  -4.6512  -4.5953  -4.5944  -4.5540  -4.5367  -4.4903
    -4.4464  -4.4359  -4.4112  -4.3966  -4.3552  -4.3372  -4.3346  -4.2597
    -4.1025  -4.0849  -4.0616  -4.0538  -4.0248  -4.0029  -3.9643  -3.9531
    -3.5762  -3.4664  -3.3418

     occupation numbers 
     1.0000   1.0000   1.0000   1.0000   1.0000   1.0000   1.0000   1.0000
     1.0000   1.0000   1.0000   1.0000   1.0000   1.0000   1.0000   1.0000
     1.0000   1.0000   1.0000   1.0000   1.0000   1.0000   1.0000   1.0000
     1.0000   1.0000   1.0000   1.0000   1.0000   1.0000   1.0000   1.0000
     1.0000   1.0000   1.0000   1.0000   1.0000   1.0000   1.0000   1.0000
     1.0000   1.0000   1.0000   1.0000   1.0000   1.0000   1.0000   1.0000
     1.0000   1.0000   1.0000   1.0000   1.0000   1.0000   1.0000   1.0000
     1.0000   1.0000   1.0000   1.0000   1.0000   1.0000   1.0000   1.0000
     0.8576   0.1122   0.0001

          k = 0.1250 0.3608 0.0000 ( 21770 PWs)   bands (ev):

   -76.1210 -76.1197 -76.1184 -76.1182 -76.1167 -76.1160 -73.1197 -73.1176
   -47.8675 -47.8658 -47.8653 -47.8646 -47.8634 -47.8628 -47.8443 -47.8420
   -47.8411 -47.8401 -47.8395 -47.8380 -47.8372 -47.8360 -47.8356 -47.8328
   -47.8319 -47.8314 -44.7763 -44.7759 -44.7754 -44.7748 -44.7743 -44.7740
    -7.4769  -6.1365  -5.7350  -5.5240  -5.1502  -5.0551  -4.9844  -4.9375
    -4.7972  -4.6891  -4.6486  -4.6270  -4.6034  -4.5516  -4.5408  -4.4736
    -4.4628  -4.4300  -4.3759  -4.3622  -4.3481  -4.2969  -4.2649  -4.2369
    -4.1464  -4.0878  -4.0762  -4.0163  -4.0080  -3.9755  -3.9432  -3.9352
    -3.8345  -3.6479  -3.4813

     occupation numbers 
     1.0000   1.0000   1.0000   1.0000   1.0000   1.0000   1.0000   1.0000
     1.0000   1.0000   1.0000   1.0000   1.0000   1.0000   1.0000   1.0000
     1.0000   1.0000   1.0000   1.0000   1.0000   1.0000   1.0000   1.0000
     1.0000   1.0000   1.0000   1.0000   1.0000   1.0000   1.0000   1.0000
     1.0000   1.0000   1.0000   1.0000   1.0000   1.0000   1.0000   1.0000
     1.0000   1.0000   1.0000   1.0000   1.0000   1.0000   1.0000   1.0000
     1.0000   1.0000   1.0000   1.0000   1.0000   1.0000   1.0000   1.0000
     1.0000   1.0000   1.0000   1.0000   1.0000   1.0000   1.0000   1.0000
     1.0000   0.9948   0.1831

          k = 0.1250 0.5052 0.0000 ( 21769 PWs)   bands (ev):

   -76.1207 -76.1189 -76.1188 -76.1177 -76.1174 -76.1159 -73.1191 -73.1180
   -47.8673 -47.8661 -47.8647 -47.8642 -47.8637 -47.8627 -47.8436 -47.8424
   -47.8414 -47.8399 -47.8398 -47.8377 -47.8376 -47.8358 -47.8351 -47.8322
   -47.8321 -47.8316 -44.7761 -44.7756 -44.7752 -44.7748 -44.7745 -44.7741
    -7.1574  -6.5481  -5.6376  -5.4437  -5.2275  -5.1084  -5.0848  -4.9098
    -4.8694  -4.7548  -4.6681  -4.6051  -4.5918  -4.5530  -4.5312  -4.5216
    -4.4966  -4.4061  -4.3803  -4.3376  -4.2671  -4.2345  -4.2032  -4.1813
    -4.1502  -4.1123  -4.1006  -4.0173  -4.0035  -3.9781  -3.9581  -3.9119
    -3.8689  -3.8245  -3.6964

     occupation numbers 
     1.0000   1.0000   1.0000   1.0000   1.0000   1.0000   1.0000   1.0000
     1.0000   1.0000   1.0000   1.0000   1.0000   1.0000   1.0000   1.0000
     1.0000   1.0000   1.0000   1.0000   1.0000   1.0000   1.0000   1.0000
     1.0000   1.0000   1.0000   1.0000   1.0000   1.0000   1.0000   1.0000
     1.0000   1.0000   1.0000   1.0000   1.0000   1.0000   1.0000   1.0000
     1.0000   1.0000   1.0000   1.0000   1.0000   1.0000   1.0000   1.0000
     1.0000   1.0000   1.0000   1.0000   1.0000   1.0000   1.0000   1.0000
     1.0000   1.0000   1.0000   1.0000   1.0000   1.0000   1.0000   1.0000
     1.0000   1.0000   0.9998

          k = 0.2500 0.4330 0.0000 ( 21735 PWs)   bands (ev):

   -76.1188 -76.1187 -76.1182 -76.1165 -76.1160 -76.1154 -73.1187 -73.1166
   -47.8666 -47.8651 -47.8644 -47.8636 -47.8632 -47.8625 -47.8428 -47.8415
   -47.8405 -47.8398 -47.8396 -47.8369 -47.8368 -47.8356 -47.8348 -47.8322
   -47.8312 -47.8311 -44.7752 -44.7750 -44.7748 -44.7740 -44.7739 -44.7736
    -7.1919  -6.4230  -5.7865  -5.4945  -5.1769  -5.0793  -4.9864  -4.9718
    -4.8595  -4.6725  -4.6461  -4.6235  -4.6076  -4.5475  -4.5381  -4.4733
    -4.4580  -4.3936  -4.3523  -4.3144  -4.2956  -4.2936  -4.2609  -4.2152
    -4.1614  -4.0918  -4.0880  -4.0297  -3.9953  -3.9656  -3.9431  -3.9360
    -3.8907  -3.8798  -3.6028

     occupation numbers 
     1.0000   1.0000   1.0000   1.0000   1.0000   1.0000   1.0000   1.0000
     1.0000   1.0000   1.0000   1.0000   1.0000   1.0000   1.0000   1.0000
     1.0000   1.0000   1.0000   1.0000   1.0000   1.0000   1.0000   1.0000
     1.0000   1.0000   1.0000   1.0000   1.0000   1.0000   1.0000   1.0000
     1.0000   1.0000   1.0000   1.0000   1.0000   1.0000   1.0000   1.0000
     1.0000   1.0000   1.0000   1.0000   1.0000   1.0000   1.0000   1.0000
     1.0000   1.0000   1.0000   1.0000   1.0000   1.0000   1.0000   1.0000
     1.0000   1.0000   1.0000   1.0000   1.0000   1.0000   1.0000   1.0000
     1.0000   1.0000   0.9476

          k = 0.2500 0.5774 0.0000 ( 21742 PWs)   bands (ev):

   -76.1190 -76.1180 -76.1180 -76.1171 -76.1169 -76.1155 -73.1186 -73.1169
   -47.8669 -47.8646 -47.8646 -47.8638 -47.8635 -47.8618 -47.8427 -47.8421
   -47.8401 -47.8399 -47.8396 -47.8371 -47.8370 -47.8355 -47.8353 -47.8323
   -47.8317 -47.8309 -44.7757 -44.7751 -44.7745 -44.7744 -44.7737 -44.7736
    -6.9305  -6.6822  -5.8926  -5.3039  -5.2512  -5.1119  -4.9954  -4.9195
    -4.9092  -4.7388  -4.6352  -4.6291  -4.5822  -4.5810  -4.5454  -4.4719
    -4.4550  -4.3822  -4.3312  -4.3259  -4.2846  -4.2681  -4.2206  -4.1997
    -4.1650  -4.1089  -4.1059  -4.0264  -4.0222  -3.9858  -3.9774  -3.9614
    -3.9309  -3.8087  -3.7502

     occupation numbers 
     1.0000   1.0000   1.0000   1.0000   1.0000   1.0000   1.0000   1.0000
     1.0000   1.0000   1.0000   1.0000   1.0000   1.0000   1.0000   1.0000
     1.0000   1.0000   1.0000   1.0000   1.0000   1.0000   1.0000   1.0000
     1.0000   1.0000   1.0000   1.0000   1.0000   1.0000   1.0000   1.0000
     1.0000   1.0000   1.0000   1.0000   1.0000   1.0000   1.0000   1.0000
     1.0000   1.0000   1.0000   1.0000   1.0000   1.0000   1.0000   1.0000
     1.0000   1.0000   1.0000   1.0000   1.0000   1.0000   1.0000   1.0000
     1.0000   1.0000   1.0000   1.0000   1.0000   1.0000   1.0000   1.0000
     1.0000   1.0000   1.0000

     the Fermi energy is    -3.5248 ev

!    total energy              =   -1418.42557676 Ry
     estimated scf accuracy    <          2.6E-14 Ry
     smearing contrib. (-TS)   =      -0.00077584 Ry
     internal energy E=F+TS    =   -1418.42480091 Ry

     The total energy is F=E-TS. E is the sum of the following terms:
     one-electron contribution =   -4414.12990404 Ry
     hartree contribution      =    2179.95100608 Ry
     xc contribution           =    -207.22962306 Ry
     ewald contribution        =    1022.98372011 Ry

     total magnetization       =   -20.12 Bohr mag/cell
     absolute magnetization    =    33.30 Bohr mag/cell

     convergence has been achieved in  29 iterations

     Writing all to output data dir ./cri3_50Ry_k8x8x1.save/
 
     init_run     :      2.28s CPU      2.42s WALL (       1 calls)
     electrons    :    286.44s CPU    296.04s WALL (       1 calls)

     Called by init_run:
     wfcinit      :      1.49s CPU      1.58s WALL (       1 calls)
     wfcinit:atom :      0.03s CPU      0.04s WALL (      20 calls)
     wfcinit:wfcr :      1.29s CPU      1.36s WALL (      20 calls)
     potinit      :      0.12s CPU      0.12s WALL (       1 calls)
     hinit0       :      0.22s CPU      0.26s WALL (       1 calls)

     Called by electrons:
     c_bands      :    267.12s CPU    276.23s WALL (      29 calls)
     sum_band     :     18.13s CPU     18.49s WALL (      29 calls)
     v_of_rho     :      0.28s CPU      0.29s WALL (      30 calls)
     v_h          :      0.05s CPU      0.05s WALL (      30 calls)
     v_xc         :      0.23s CPU      0.24s WALL (      30 calls)
     mix_rho      :      0.81s CPU      0.82s WALL (      29 calls)

     Called by c_bands:
     init_us_2    :      3.51s CPU      3.57s WALL (    1180 calls)
     init_us_2:cp :      3.50s CPU      3.56s WALL (    1180 calls)
     cegterg      :    248.12s CPU    257.05s WALL (     586 calls)

     Called by sum_band:
     sum_band:wei :      0.05s CPU      0.05s WALL (      29 calls)
     sum_band:loo :     17.83s CPU     18.18s WALL (      29 calls)
     sum_band:buf :      0.89s CPU      0.91s WALL (     580 calls)
     sum_band:ini :      1.77s CPU      1.79s WALL (     580 calls)

     Called by *egterg:
     cdiaghg      :     32.10s CPU     36.91s WALL (    6358 calls)
     cegterg:over :     26.20s CPU     26.58s WALL (    5778 calls)
     cegterg:upda :     27.43s CPU     27.76s WALL (    5778 calls)
     cegterg:last :     29.89s CPU     30.15s WALL (    1672 calls)
     cdiaghg:chol :      2.23s CPU      2.30s WALL (    6358 calls)
     cdiaghg:inve :      1.64s CPU      1.71s WALL (    6358 calls)
     cdiaghg:para :      2.94s CPU      3.04s WALL (   12716 calls)
     h_psi        :    125.90s CPU    129.08s WALL (    6384 calls)
     g_psi        :      1.08s CPU      1.10s WALL (    5778 calls)

     Called by h_psi:
     h_psi:calbec :     17.66s CPU     18.00s WALL (    6384 calls)
     vloc_psi     :     86.99s CPU     89.61s WALL (    6384 calls)
     add_vuspsi   :     18.74s CPU     18.92s WALL (    6384 calls)

     General routines
     calbec       :     17.62s CPU     17.99s WALL (    6384 calls)
     fft          :      0.11s CPU      0.14s WALL (     148 calls)
     ffts         :      0.04s CPU      0.04s WALL (      58 calls)
     fftw         :     76.74s CPU     78.95s WALL (  298896 calls)
 
     Parallel routines
 
     PWSCF        :   4m49.18s CPU   5m 3.37s WALL

 
   This run was terminated on:  10:25:32  16Jan2024            

=------------------------------------------------------------------------------=
   JOB DONE.
=------------------------------------------------------------------------------=
