
     Program PWSCF v.7.0 starts on 18Jan2024 at 15:14:10 

     This program is part of the open-source Quantum ESPRESSO suite
     for quantum simulation of materials; please cite
         "P. Giannozzi et al., J. Phys.:Condens. Matter 21 395502 (2009);
         "P. Giannozzi et al., J. Phys.:Condens. Matter 29 465901 (2017);
         "P. Giannozzi et al., J. Chem. Phys. 152 154105 (2020);
          URL http://www.quantum-espresso.org", 
     in publications or presentations arising from this work. More details at
     http://www.quantum-espresso.org/quote

     Parallel version (MPI), running on    12 processors

     MPI processes distributed on     1 nodes
     R & G space division:  proc/nbgrp/npool/nimage =      12
     124675 MiB available memory on the printing compute node when the environment starts
 
     Reading input from cri3-exp-nosoc_70Ry_k8x8x1.scf.in

     Current dimensions of program PWSCF are:
     Max number of different atomic species (ntypx) = 10
     Max number of k-points (npk) =  40000
     Max angular momentum in pseudopotentials (lmaxx) =  4

     Subspace diagonalization in iterative solution of the eigenvalue problem:
     one sub-group per band group will be used
     scalapack distributed-memory algorithm (size of sub-group:  3*  3 procs)

 
     Parallelization info
     --------------------
     sticks:   dense  smooth     PW     G-vecs:    dense   smooth      PW
     Min         271     271     71                24039    24039    3337
     Max         272     272     72                24048    24048    3346
     Sum        3253    3253    859               288481   288481   40083
 
     Using Slab Decomposition
 


     bravais-lattice index     =            4
     lattice parameter (alat)  =      12.9767  a.u.
     unit-cell volume          =    3645.8815 (a.u.)^3
     number of atoms/cell      =            8
     number of atomic types    =            2
     number of electrons       =        70.00
     number of Kohn-Sham states=           42
     kinetic-energy cutoff     =      70.0000  Ry
     charge density cutoff     =     280.0000  Ry
     scf convergence threshold =      1.0E-13
     mixing beta               =       0.7000
     number of iterations used =            8  plain     mixing
     Exchange-correlation= PZ
                           (   1   1   0   0   0   0   0)

     celldm(1)=  12.976749  celldm(2)=   0.000000  celldm(3)=   1.926523
     celldm(4)=   0.000000  celldm(5)=   0.000000  celldm(6)=   0.000000

     crystal axes: (cart. coord. in units of alat)
               a(1) = (   1.000000   0.000000   0.000000 )  
               a(2) = (  -0.500000   0.866025   0.000000 )  
               a(3) = (   0.000000   0.000000   1.926523 )  

     reciprocal axes: (cart. coord. in units 2 pi/alat)
               b(1) = (  1.000000  0.577350  0.000000 )  
               b(2) = (  0.000000  1.154701  0.000000 )  
               b(3) = (  0.000000  0.000000  0.519070 )  


     PseudoPot. # 1 for Cr read from file:
     ./Cr_Alejandro.upf
     MD5 check sum: 19f8874af457815d5c8e16c7b8c57f71
     Pseudo is Norm-conserving + core correction, Zval = 14.0
     Generated using ONCVPSP code by D. R. Hamann
     Using radial grid of 1600 points,  6 beta functions with: 
                l(1) =   0
                l(2) =   0
                l(3) =   1
                l(4) =   1
                l(5) =   2
                l(6) =   2

     PseudoPot. # 2 for I  read from file:
     ./I_Alejandro.upf
     MD5 check sum: d0d4d45a39a9ecd37d4d9deb6bd296a3
     Pseudo is Norm-conserving + core correction, Zval =  7.0
     Generated using ONCVPSP code by D. R. Hamann
     Using radial grid of 1196 points,  6 beta functions with: 
                l(1) =   0
                l(2) =   0
                l(3) =   1
                l(4) =   1
                l(5) =   2
                l(6) =   2

     atomic species   valence    mass     pseudopotential
        Cr            14.00    51.99000     Cr( 1.00)
        I              7.00   126.90000     I ( 1.00)

     Starting magnetic structure 
     atomic species   magnetization
        Cr           1.000
        I            0.000

      6 Sym. Ops. (no inversion) found ( 3 have fractional translation)


                                    s                        frac. trans.

      isym =  1     identity                                     

 cryst.   s( 1) = (     1          0          0      )
                  (     0          1          0      )
                  (     0          0          1      )

 cart.    s( 1) = (  1.0000000  0.0000000  0.0000000 )
                  (  0.0000000  1.0000000  0.0000000 )
                  (  0.0000000  0.0000000  1.0000000 )


      isym =  2     120 deg rotation - cryst. axis [0,0,1]       

 cryst.   s( 2) = (     0          1          0      )
                  (    -1         -1          0      )
                  (     0          0          1      )

 cart.    s( 2) = ( -0.5000000 -0.8660254  0.0000000 )
                  (  0.8660254 -0.5000000  0.0000000 )
                  (  0.0000000  0.0000000  1.0000000 )


      isym =  3     120 deg rotation - cryst. axis [0,0,-1]      

 cryst.   s( 3) = (    -1         -1          0      )
                  (     1          0          0      )
                  (     0          0          1      )

 cart.    s( 3) = ( -0.5000000  0.8660254  0.0000000 )
                  ( -0.8660254 -0.5000000  0.0000000 )
                  (  0.0000000  0.0000000  1.0000000 )


      isym =  4     inv. 180 deg rotation - cart. axis [0,1,0]   

 cryst.   s( 4) = (     1          0          0      )    f =( -0.3333333 )
                  (    -1         -1          0      )       (  0.3333333 )
                  (     0          0          1      )       (  0.0000000 )

 cart.    s( 4) = (  1.0000000  0.0000000  0.0000000 )    f =( -0.5000000 )
                  (  0.0000000 -1.0000000  0.0000000 )       (  0.2886751 )
                  (  0.0000000  0.0000000  1.0000000 )       (  0.0000000 )


      isym =  5     inv. 180 deg rotation - cryst. axis [1,-1,0] 

 cryst.   s( 5) = (     0          1          0      )    f =( -0.3333333 )
                  (     1          0          0      )       (  0.3333333 )
                  (     0          0          1      )       (  0.0000000 )

 cart.    s( 5) = ( -0.5000000  0.8660254  0.0000000 )    f =( -0.5000000 )
                  (  0.8660254  0.5000000  0.0000000 )       (  0.2886751 )
                  (  0.0000000  0.0000000  1.0000000 )       (  0.0000000 )


      isym =  6     inv. 180 deg rotation - cryst. axis [2,1,0]  

 cryst.   s( 6) = (    -1         -1          0      )    f =( -0.3333333 )
                  (     0          1          0      )       (  0.3333333 )
                  (     0          0          1      )       (  0.0000000 )

 cart.    s( 6) = ( -0.5000000 -0.8660254  0.0000000 )    f =( -0.5000000 )
                  ( -0.8660254  0.5000000  0.0000000 )       (  0.2886751 )
                  (  0.0000000  0.0000000  1.0000000 )       (  0.0000000 )


     point group C_3v (3m)  
     there are  3 classes
     the character table:

       E     2C3   3s_v 
A_1    1.00  1.00  1.00
A_2    1.00  1.00 -1.00
E      2.00 -1.00  0.00

     the symmetry operations in each class and the name of the first element:

     E        1
          identity                                               
     2C3      2    3
          120 deg rotation - cryst. axis [0,0,1]                 
     3s_v     4    6    5
          inv. 180 deg rotation - cart. axis [0,1,0]             

   Cartesian axes

     site n.     atom                  positions (alat units)
         1           Cr  tau(   1) = (   0.0000000   0.0000000   0.4846161  )
         2           Cr  tau(   2) = (   0.0000000   0.5773503   0.4846161  )
         3           I   tau(   3) = (  -0.1753225   0.8510331   0.7123856  )
         4           I   tau(   4) = (   0.3246775   0.5923426   0.7123856  )
         5           I   tau(   5) = (  -0.1493550   0.2886751   0.7123856  )
         6           I   tau(   6) = (  -0.3246775   0.5923426   0.2568467  )
         7           I   tau(   7) = (   0.1753225   0.8510331   0.2568467  )
         8           I   tau(   8) = (   0.1493550   0.2886751   0.2568467  )

   Crystallographic axes

     site n.     atom                  positions (cryst. coord.)
         1           Cr  tau(   1) = (  0.0000000  0.0000000  0.2515496  )
         2           Cr  tau(   2) = (  0.3333333  0.6666667  0.2515496  )
         3           I   tau(   3) = (  0.3160217  0.9826883  0.3697779  )
         4           I   tau(   4) = (  0.6666667  0.6839783  0.3697779  )
         5           I   tau(   5) = (  0.0173117  0.3333333  0.3697779  )
         6           I   tau(   6) = (  0.0173117  0.6839783  0.1333214  )
         7           I   tau(   7) = (  0.6666667  0.9826883  0.1333214  )
         8           I   tau(   8) = (  0.3160217  0.3333333  0.1333214  )

     number of k points=    10  Gaussian smearing, width (Ry)=  0.0050
                       cart. coord. in units 2pi/alat
        k(    1) = (   0.0000000   0.0000000   0.0000000), wk =   0.0156250
        k(    2) = (   0.0000000   0.1443376   0.0000000), wk =   0.0937500
        k(    3) = (   0.0000000   0.2886751   0.0000000), wk =   0.0937500
        k(    4) = (   0.0000000   0.4330127   0.0000000), wk =   0.0937500
        k(    5) = (   0.0000000  -0.5773503   0.0000000), wk =   0.0468750
        k(    6) = (   0.1250000   0.2165064   0.0000000), wk =   0.0937500
        k(    7) = (   0.1250000   0.3608439   0.0000000), wk =   0.1875000
        k(    8) = (   0.1250000   0.5051815   0.0000000), wk =   0.1875000
        k(    9) = (   0.2500000   0.4330127   0.0000000), wk =   0.0937500
        k(   10) = (   0.2500000   0.5773503   0.0000000), wk =   0.0937500

                       cryst. coord.
        k(    1) = (   0.0000000   0.0000000   0.0000000), wk =   0.0156250
        k(    2) = (   0.0000000   0.1250000   0.0000000), wk =   0.0937500
        k(    3) = (   0.0000000   0.2500000   0.0000000), wk =   0.0937500
        k(    4) = (   0.0000000   0.3750000   0.0000000), wk =   0.0937500
        k(    5) = (   0.0000000  -0.5000000   0.0000000), wk =   0.0468750
        k(    6) = (   0.1250000   0.1250000   0.0000000), wk =   0.0937500
        k(    7) = (   0.1250000   0.2500000   0.0000000), wk =   0.1875000
        k(    8) = (   0.1250000   0.3750000   0.0000000), wk =   0.1875000
        k(    9) = (   0.2500000   0.2500000   0.0000000), wk =   0.0937500
        k(   10) = (   0.2500000   0.3750000   0.0000000), wk =   0.0937500

     Dense  grid:   288481 G-vectors     FFT dimensions: (  72,  72, 135)

     Dynamical RAM for                 wfc:       1.93 MB

     Dynamical RAM for     wfc (w. buffer):      40.43 MB

     Dynamical RAM for           str. fact:       0.73 MB

     Dynamical RAM for           local pot:       0.00 MB

     Dynamical RAM for          nlocal pot:       6.60 MB

     Dynamical RAM for                qrad:       2.69 MB

     Dynamical RAM for          rho,v,vnew:       5.05 MB

     Dynamical RAM for               rhoin:       1.68 MB

     Dynamical RAM for            rho*nmix:      11.74 MB

     Dynamical RAM for           G-vectors:       1.56 MB

     Dynamical RAM for          h,s,v(r/c):       0.04 MB

     Dynamical RAM for          <psi|beta>:       0.09 MB

     Dynamical RAM for                 psi:       3.85 MB

     Dynamical RAM for                hpsi:       3.85 MB

     Dynamical RAM for      wfcinit/wfcrot:       4.08 MB

     Estimated static dynamical RAM per process >      62.69 MB

     Estimated max dynamical RAM per process >      82.26 MB

     Estimated total dynamical RAM >     987.14 MB
 ----2D----2D----2D----2D----2D----2D----2D----2D----2D----2D----2D----2D
  The code is running with the 2D cutoff
  Please refer to:
  Sohier, T., Calandra, M., & Mauri, F. (2017), 
  Density functional perturbation theory for gated two-dimensional heterostructu
 res:
  Theoretical developments and application to flexural phonons in graphene.
  Physical Review B, 96(7), 75448. https://doi.org/10.1103/PhysRevB.96.075448
 ----2D----2D----2D----2D----2D----2D----2D----2D----2D----2D----2D----2D
     Generating pointlists ...
     new r_m :   0.1637 (alat units)  2.1245 (a.u.) for type    1
     new r_m :   0.1637 (alat units)  2.1245 (a.u.) for type    2

     Initial potential from superposition of free atoms

     starting charge      69.9974, renormalised to      70.0000

     negative rho (up, down):  1.004E-07 1.707E-08
     Starting wfcs are   44 randomized atomic wfcs

     total cpu time spent up to now is        2.5 secs

     Self-consistent Calculation

     iteration #  1     ecut=    70.00 Ry     beta= 0.70
     Davidson diagonalization with overlap

---- Real-time Memory Report at c_bands before calling an iterative solver
           189 MiB given to the printing process from OS
             0 MiB allocation reported by mallinfo(arena+hblkhd)
        123698 MiB available memory on the node where the printing process lives
------------------
     c_bands:  5 eigenvalues not converged
     c_bands:  5 eigenvalues not converged
     c_bands:  1 eigenvalues not converged
     c_bands:  5 eigenvalues not converged
     c_bands:  3 eigenvalues not converged
     c_bands:  4 eigenvalues not converged
     ethr =  5.00E-06,  avg # of iterations = 19.0

     total cpu time spent up to now is       27.1 secs

     total energy              =    -511.34940905 Ry
     estimated scf accuracy    <       4.59598175 Ry

     total magnetization       =     6.00 Bohr mag/cell
     absolute magnetization    =    10.84 Bohr mag/cell

     iteration #  2     ecut=    70.00 Ry     beta= 0.70
     Davidson diagonalization with overlap

---- Real-time Memory Report at c_bands before calling an iterative solver
           214 MiB given to the printing process from OS
             0 MiB allocation reported by mallinfo(arena+hblkhd)
        121943 MiB available memory on the node where the printing process lives
------------------
     ethr =  6.57E-03,  avg # of iterations =  5.8

     total cpu time spent up to now is       35.4 secs

     total energy              =    -511.40321028 Ry
     estimated scf accuracy    <       1.08163167 Ry

     total magnetization       =     6.00 Bohr mag/cell
     absolute magnetization    =    10.64 Bohr mag/cell

     iteration #  3     ecut=    70.00 Ry     beta= 0.70
     Davidson diagonalization with overlap

---- Real-time Memory Report at c_bands before calling an iterative solver
           219 MiB given to the printing process from OS
             0 MiB allocation reported by mallinfo(arena+hblkhd)
        121900 MiB available memory on the node where the printing process lives
------------------
     ethr =  1.55E-03,  avg # of iterations =  7.5

     total cpu time spent up to now is       45.8 secs

     total energy              =    -511.42621977 Ry
     estimated scf accuracy    <       6.40555752 Ry

     total magnetization       =     6.00 Bohr mag/cell
     absolute magnetization    =     6.37 Bohr mag/cell

     iteration #  4     ecut=    70.00 Ry     beta= 0.70
     Davidson diagonalization with overlap

---- Real-time Memory Report at c_bands before calling an iterative solver
           221 MiB given to the printing process from OS
             0 MiB allocation reported by mallinfo(arena+hblkhd)
        121821 MiB available memory on the node where the printing process lives
------------------
     ethr =  1.55E-03,  avg # of iterations =  8.1

     total cpu time spent up to now is       56.5 secs

     total energy              =    -512.03909096 Ry
     estimated scf accuracy    <       0.10988660 Ry

     total magnetization       =     6.00 Bohr mag/cell
     absolute magnetization    =     7.51 Bohr mag/cell

     iteration #  5     ecut=    70.00 Ry     beta= 0.70
     Davidson diagonalization with overlap

---- Real-time Memory Report at c_bands before calling an iterative solver
           224 MiB given to the printing process from OS
             0 MiB allocation reported by mallinfo(arena+hblkhd)
        121778 MiB available memory on the node where the printing process lives
------------------
     ethr =  1.57E-04,  avg # of iterations =  5.5

     total cpu time spent up to now is       65.0 secs

     total energy              =    -512.06493353 Ry
     estimated scf accuracy    <       0.00551210 Ry

     total magnetization       =     6.00 Bohr mag/cell
     absolute magnetization    =     7.47 Bohr mag/cell

     iteration #  6     ecut=    70.00 Ry     beta= 0.70
     Davidson diagonalization with overlap

---- Real-time Memory Report at c_bands before calling an iterative solver
           225 MiB given to the printing process from OS
             0 MiB allocation reported by mallinfo(arena+hblkhd)
        121737 MiB available memory on the node where the printing process lives
------------------
     ethr =  7.87E-06,  avg # of iterations =  4.2

     total cpu time spent up to now is       72.5 secs

     total energy              =    -512.06695960 Ry
     estimated scf accuracy    <       0.00114109 Ry

     total magnetization       =     6.00 Bohr mag/cell
     absolute magnetization    =     7.33 Bohr mag/cell

     iteration #  7     ecut=    70.00 Ry     beta= 0.70
     Davidson diagonalization with overlap

---- Real-time Memory Report at c_bands before calling an iterative solver
           227 MiB given to the printing process from OS
             0 MiB allocation reported by mallinfo(arena+hblkhd)
        121718 MiB available memory on the node where the printing process lives
------------------
     ethr =  1.63E-06,  avg # of iterations =  2.4

     total cpu time spent up to now is       79.6 secs

     total energy              =    -512.06722648 Ry
     estimated scf accuracy    <       0.00081459 Ry

     total magnetization       =     6.00 Bohr mag/cell
     absolute magnetization    =     7.17 Bohr mag/cell

     iteration #  8     ecut=    70.00 Ry     beta= 0.70
     Davidson diagonalization with overlap

---- Real-time Memory Report at c_bands before calling an iterative solver
           229 MiB given to the printing process from OS
             0 MiB allocation reported by mallinfo(arena+hblkhd)
        121673 MiB available memory on the node where the printing process lives
------------------
     ethr =  1.16E-06,  avg # of iterations =  2.5

     total cpu time spent up to now is       86.2 secs

     total energy              =    -512.06731747 Ry
     estimated scf accuracy    <       0.00013113 Ry

     total magnetization       =     6.00 Bohr mag/cell
     absolute magnetization    =     7.13 Bohr mag/cell

     iteration #  9     ecut=    70.00 Ry     beta= 0.70
     Davidson diagonalization with overlap

---- Real-time Memory Report at c_bands before calling an iterative solver
           230 MiB given to the printing process from OS
             0 MiB allocation reported by mallinfo(arena+hblkhd)
        121789 MiB available memory on the node where the printing process lives
------------------
     ethr =  1.87E-07,  avg # of iterations =  2.9

     total cpu time spent up to now is       93.4 secs

     total energy              =    -512.06735521 Ry
     estimated scf accuracy    <       0.00003151 Ry

     total magnetization       =     6.00 Bohr mag/cell
     absolute magnetization    =     7.13 Bohr mag/cell

     iteration # 10     ecut=    70.00 Ry     beta= 0.70
     Davidson diagonalization with overlap

---- Real-time Memory Report at c_bands before calling an iterative solver
           232 MiB given to the printing process from OS
             0 MiB allocation reported by mallinfo(arena+hblkhd)
        121536 MiB available memory on the node where the printing process lives
------------------
     ethr =  4.50E-08,  avg # of iterations =  2.0

     total cpu time spent up to now is       99.6 secs

     total energy              =    -512.06735990 Ry
     estimated scf accuracy    <       0.00000289 Ry

     total magnetization       =     6.00 Bohr mag/cell
     absolute magnetization    =     7.13 Bohr mag/cell

     iteration # 11     ecut=    70.00 Ry     beta= 0.70
     Davidson diagonalization with overlap

---- Real-time Memory Report at c_bands before calling an iterative solver
           232 MiB given to the printing process from OS
             0 MiB allocation reported by mallinfo(arena+hblkhd)
        121535 MiB available memory on the node where the printing process lives
------------------
     ethr =  4.13E-09,  avg # of iterations =  4.0

     total cpu time spent up to now is      106.9 secs

     total energy              =    -512.06736007 Ry
     estimated scf accuracy    <       0.00000103 Ry

     total magnetization       =     6.00 Bohr mag/cell
     absolute magnetization    =     7.13 Bohr mag/cell

     iteration # 12     ecut=    70.00 Ry     beta= 0.70
     Davidson diagonalization with overlap

---- Real-time Memory Report at c_bands before calling an iterative solver
           232 MiB given to the printing process from OS
             0 MiB allocation reported by mallinfo(arena+hblkhd)
        121602 MiB available memory on the node where the printing process lives
------------------
     ethr =  1.47E-09,  avg # of iterations =  2.5

     total cpu time spent up to now is      115.0 secs

     total energy              =    -512.06736024 Ry
     estimated scf accuracy    <          8.3E-09 Ry

     total magnetization       =     6.00 Bohr mag/cell
     absolute magnetization    =     7.13 Bohr mag/cell

     iteration # 13     ecut=    70.00 Ry     beta= 0.70
     Davidson diagonalization with overlap

---- Real-time Memory Report at c_bands before calling an iterative solver
           232 MiB given to the printing process from OS
             0 MiB allocation reported by mallinfo(arena+hblkhd)
        119914 MiB available memory on the node where the printing process lives
------------------
     ethr =  1.18E-11,  avg # of iterations =  6.2

     total cpu time spent up to now is      129.6 secs

     total energy              =    -512.06736025 Ry
     estimated scf accuracy    <          9.9E-09 Ry

     total magnetization       =     6.00 Bohr mag/cell
     absolute magnetization    =     7.13 Bohr mag/cell

     iteration # 14     ecut=    70.00 Ry     beta= 0.70
     Davidson diagonalization with overlap

---- Real-time Memory Report at c_bands before calling an iterative solver
           232 MiB given to the printing process from OS
             0 MiB allocation reported by mallinfo(arena+hblkhd)
        119174 MiB available memory on the node where the printing process lives
------------------
     ethr =  1.18E-11,  avg # of iterations =  2.0

     total cpu time spent up to now is      138.0 secs

     total energy              =    -512.06736025 Ry
     estimated scf accuracy    <          2.4E-09 Ry

     total magnetization       =     6.00 Bohr mag/cell
     absolute magnetization    =     7.13 Bohr mag/cell

     iteration # 15     ecut=    70.00 Ry     beta= 0.70
     Davidson diagonalization with overlap

---- Real-time Memory Report at c_bands before calling an iterative solver
           232 MiB given to the printing process from OS
             0 MiB allocation reported by mallinfo(arena+hblkhd)
        119142 MiB available memory on the node where the printing process lives
------------------
     ethr =  3.39E-12,  avg # of iterations =  2.5

     total cpu time spent up to now is      146.3 secs

     total energy              =    -512.06736025 Ry
     estimated scf accuracy    <          3.6E-10 Ry

     total magnetization       =     6.00 Bohr mag/cell
     absolute magnetization    =     7.13 Bohr mag/cell

     iteration # 16     ecut=    70.00 Ry     beta= 0.70
     Davidson diagonalization with overlap

---- Real-time Memory Report at c_bands before calling an iterative solver
           232 MiB given to the printing process from OS
             0 MiB allocation reported by mallinfo(arena+hblkhd)
        119137 MiB available memory on the node where the printing process lives
------------------
     ethr =  5.11E-13,  avg # of iterations =  2.0

     total cpu time spent up to now is      154.7 secs

     total energy              =    -512.06736025 Ry
     estimated scf accuracy    <          5.1E-12 Ry

     total magnetization       =     6.00 Bohr mag/cell
     absolute magnetization    =     7.13 Bohr mag/cell

     iteration # 17     ecut=    70.00 Ry     beta= 0.70
     Davidson diagonalization with overlap

---- Real-time Memory Report at c_bands before calling an iterative solver
           232 MiB given to the printing process from OS
             0 MiB allocation reported by mallinfo(arena+hblkhd)
        119110 MiB available memory on the node where the printing process lives
------------------
     ethr =  1.00E-13,  avg # of iterations =  1.7

     total cpu time spent up to now is      161.9 secs

     total energy              =    -512.06736025 Ry
     estimated scf accuracy    <          2.0E-12 Ry

     total magnetization       =     6.00 Bohr mag/cell
     absolute magnetization    =     7.13 Bohr mag/cell

     iteration # 18     ecut=    70.00 Ry     beta= 0.70
     Davidson diagonalization with overlap

---- Real-time Memory Report at c_bands before calling an iterative solver
           232 MiB given to the printing process from OS
             0 MiB allocation reported by mallinfo(arena+hblkhd)
        119268 MiB available memory on the node where the printing process lives
------------------
     ethr =  1.00E-13,  avg # of iterations =  1.0

     total cpu time spent up to now is      168.3 secs

     total energy              =    -512.06736025 Ry
     estimated scf accuracy    <          1.2E-13 Ry

     total magnetization       =     6.00 Bohr mag/cell
     absolute magnetization    =     7.13 Bohr mag/cell

     iteration # 19     ecut=    70.00 Ry     beta= 0.70
     Davidson diagonalization with overlap

---- Real-time Memory Report at c_bands before calling an iterative solver
           232 MiB given to the printing process from OS
             0 MiB allocation reported by mallinfo(arena+hblkhd)
        119110 MiB available memory on the node where the printing process lives
------------------
     ethr =  1.00E-13,  avg # of iterations =  1.0
 
     Magnetic moment per site  (integrated on atomic sphere of radius R)
     atom   1 (R=0.164)  charge= 12.4351  magn=  2.9387
     atom   2 (R=0.164)  charge= 12.4351  magn=  2.9387
     atom   3 (R=0.164)  charge=  4.1206  magn= -0.0521
     atom   4 (R=0.164)  charge=  4.1206  magn= -0.0521
     atom   5 (R=0.164)  charge=  4.1206  magn= -0.0521
     atom   6 (R=0.164)  charge=  4.1207  magn= -0.0521
     atom   7 (R=0.164)  charge=  4.1207  magn= -0.0521
     atom   8 (R=0.164)  charge=  4.1207  magn= -0.0521

     total cpu time spent up to now is      174.5 secs

     End of self-consistent calculation

 ------ SPIN UP ------------


          k = 0.0000 0.0000 0.0000 ( 36103 PWs)   bands (ev):

   -77.4615 -77.4613 -49.1906 -49.1896 -49.1810 -49.1810 -49.1781 -49.1781
   -18.4877 -17.7429 -17.4393 -17.4393 -17.3452 -17.3452 -10.1023  -9.6003
    -9.0576  -9.0576  -9.0112  -9.0112  -8.6906  -8.2631  -8.2631  -8.2299
    -7.8294  -7.8294  -7.3845  -6.6891  -6.6891  -6.6537  -6.4582  -6.1665
    -6.1665  -6.1079  -6.0310  -6.0310  -5.6169  -5.6169  -4.4402  -4.4402
    -4.0073  -4.0073

     occupation numbers 
     1.0000   1.0000   1.0000   1.0000   1.0000   1.0000   1.0000   1.0000
     1.0000   1.0000   1.0000   1.0000   1.0000   1.0000   1.0000   1.0000
     1.0000   1.0000   1.0000   1.0000   1.0000   1.0000   1.0000   1.0000
     1.0000   1.0000   1.0000   1.0000   1.0000   1.0000   1.0000   1.0000
     1.0000   1.0000   1.0000   1.0000   1.0000   1.0000   0.0000   0.0000
     0.0000   0.0000

          k = 0.0000 0.1443 0.0000 ( 36080 PWs)   bands (ev):

   -77.4614 -77.4613 -49.1905 -49.1896 -49.1811 -49.1810 -49.1782 -49.1781
   -18.4545 -17.7242 -17.4856 -17.4578 -17.3490 -17.3477 -10.1010  -9.5939
    -9.0852  -9.0719  -9.0564  -8.9449  -8.5929  -8.3104  -8.2712  -8.0507
    -7.8418  -7.7512  -7.3504  -6.8340  -6.7924  -6.5053  -6.4690  -6.3500
    -6.2251  -6.0646  -6.0003  -5.9989  -5.6706  -5.5922  -4.4371  -4.4216
    -4.1331  -4.0335

     occupation numbers 
     1.0000   1.0000   1.0000   1.0000   1.0000   1.0000   1.0000   1.0000
     1.0000   1.0000   1.0000   1.0000   1.0000   1.0000   1.0000   1.0000
     1.0000   1.0000   1.0000   1.0000   1.0000   1.0000   1.0000   1.0000
     1.0000   1.0000   1.0000   1.0000   1.0000   1.0000   1.0000   1.0000
     1.0000   1.0000   1.0000   1.0000   1.0000   1.0000   0.0000   0.0000
     0.0000   0.0000

          k = 0.0000 0.2887 0.0000 ( 36074 PWs)   bands (ev):

   -77.4615 -77.4613 -49.1904 -49.1897 -49.1811 -49.1807 -49.1784 -49.1780
   -18.3595 -17.6715 -17.6071 -17.4947 -17.3692 -17.3634 -10.0865  -9.5707
    -9.1615  -9.1041  -9.0364  -8.7111  -8.4870  -8.3610  -8.2936  -7.8922
    -7.6780  -7.5689  -7.3383  -7.0091  -6.9695  -6.8251  -6.3654  -6.3497
    -6.2861  -6.0378  -5.9899  -5.9839  -5.7435  -5.5692  -4.4284  -4.3754
    -4.3018  -4.1215

     occupation numbers 
     1.0000   1.0000   1.0000   1.0000   1.0000   1.0000   1.0000   1.0000
     1.0000   1.0000   1.0000   1.0000   1.0000   1.0000   1.0000   1.0000
     1.0000   1.0000   1.0000   1.0000   1.0000   1.0000   1.0000   1.0000
     1.0000   1.0000   1.0000   1.0000   1.0000   1.0000   1.0000   1.0000
     1.0000   1.0000   1.0000   1.0000   1.0000   1.0000   0.0000   0.0000
     0.0000   0.0000

          k = 0.0000 0.4330 0.0000 ( 36058 PWs)   bands (ev):

   -77.4614 -77.4613 -49.1903 -49.1898 -49.1812 -49.1804 -49.1787 -49.1780
   -18.2194 -17.7714 -17.5960 -17.5256 -17.4196 -17.3801 -10.0814  -9.4906
    -9.2245  -9.0512  -8.8700  -8.6378  -8.5672  -8.2848  -8.1681  -7.9675
    -7.6606  -7.4994  -7.4149  -7.1438  -6.9438  -6.8696  -6.4237  -6.3599
    -6.2735  -6.0286  -6.0084  -5.9546  -5.7901  -5.5783  -4.4103  -4.3462
    -4.2765  -4.2447

     occupation numbers 
     1.0000   1.0000   1.0000   1.0000   1.0000   1.0000   1.0000   1.0000
     1.0000   1.0000   1.0000   1.0000   1.0000   1.0000   1.0000   1.0000
     1.0000   1.0000   1.0000   1.0000   1.0000   1.0000   1.0000   1.0000
     1.0000   1.0000   1.0000   1.0000   1.0000   1.0000   1.0000   1.0000
     1.0000   1.0000   1.0000   1.0000   1.0000   1.0000   0.0000   0.0000
     0.0000   0.0000

          k = 0.0000-0.5774 0.0000 ( 36024 PWs)   bands (ev):

   -77.4614 -77.4613 -49.1902 -49.1899 -49.1812 -49.1803 -49.1789 -49.1779
   -18.1126 -17.8879 -17.5374 -17.5346 -17.4719 -17.3871 -10.0864  -9.4276
    -9.2482  -8.9777  -8.7520  -8.6898  -8.5903  -8.2347  -8.0865  -8.0181
    -7.8574  -7.6552  -7.3782  -7.0058  -6.8443  -6.8084  -6.4857  -6.4429
    -6.2896  -6.0560  -6.0019  -5.8901  -5.8088  -5.5948  -4.3784  -4.3486
    -4.3272  -4.2022

     occupation numbers 
     1.0000   1.0000   1.0000   1.0000   1.0000   1.0000   1.0000   1.0000
     1.0000   1.0000   1.0000   1.0000   1.0000   1.0000   1.0000   1.0000
     1.0000   1.0000   1.0000   1.0000   1.0000   1.0000   1.0000   1.0000
     1.0000   1.0000   1.0000   1.0000   1.0000   1.0000   1.0000   1.0000
     1.0000   1.0000   1.0000   1.0000   1.0000   1.0000   0.0000   0.0000
     0.0000   0.0000

          k = 0.1250 0.2165 0.0000 ( 36103 PWs)   bands (ev):

   -77.4615 -77.4613 -49.1905 -49.1897 -49.1811 -49.1808 -49.1784 -49.1780
   -18.3903 -17.6884 -17.5606 -17.4953 -17.3616 -17.3555 -10.0813  -9.5895
    -9.1326  -9.1324  -9.0472  -8.7674  -8.4667  -8.4126  -8.2581  -7.8816
    -7.7741  -7.6297  -7.3465  -6.9760  -6.8851  -6.6533  -6.5043  -6.3855
    -6.2249  -6.0340  -6.0195  -5.9540  -5.7234  -5.5701  -4.4438  -4.3842
    -4.2873  -4.0655

     occupation numbers 
     1.0000   1.0000   1.0000   1.0000   1.0000   1.0000   1.0000   1.0000
     1.0000   1.0000   1.0000   1.0000   1.0000   1.0000   1.0000   1.0000
     1.0000   1.0000   1.0000   1.0000   1.0000   1.0000   1.0000   1.0000
     1.0000   1.0000   1.0000   1.0000   1.0000   1.0000   1.0000   1.0000
     1.0000   1.0000   1.0000   1.0000   1.0000   1.0000   0.0000   0.0000
     0.0000   0.0000

          k = 0.1250 0.3608 0.0000 ( 36097 PWs)   bands (ev):

   -77.4615 -77.4614 -49.1903 -49.1898 -49.1812 -49.1805 -49.1787 -49.1779
   -18.2712 -17.6943 -17.6243 -17.5420 -17.3948 -17.3722 -10.0320  -9.5643
    -9.1797  -9.1251  -8.9621  -8.5907  -8.5838  -8.3563  -8.1236  -7.9374
    -7.6654  -7.4883  -7.3869  -7.0622  -6.9789  -6.8536  -6.5604  -6.3497
    -6.2273  -6.0470  -5.9822  -5.9213  -5.7758  -5.5723  -4.4411  -4.3574
    -4.3146  -4.1344

     occupation numbers 
     1.0000   1.0000   1.0000   1.0000   1.0000   1.0000   1.0000   1.0000
     1.0000   1.0000   1.0000   1.0000   1.0000   1.0000   1.0000   1.0000
     1.0000   1.0000   1.0000   1.0000   1.0000   1.0000   1.0000   1.0000
     1.0000   1.0000   1.0000   1.0000   1.0000   1.0000   1.0000   1.0000
     1.0000   1.0000   1.0000   1.0000   1.0000   1.0000   0.0000   0.0000
     0.0000   0.0000

          k = 0.1250 0.5052 0.0000 ( 36022 PWs)   bands (ev):

   -77.4614 -77.4613 -49.1902 -49.1899 -49.1813 -49.1802 -49.1789 -49.1779
   -18.1276 -17.8504 -17.5696 -17.5484 -17.4502 -17.3861 -10.0081  -9.4774
    -9.2136  -9.0435  -8.7833  -8.7503  -8.5721  -8.3043  -8.1809  -7.8914
    -7.8240  -7.4448  -7.3921  -7.0902  -6.8633  -6.7948  -6.5943  -6.4791
    -6.2543  -6.0360  -5.9526  -5.8676  -5.8083  -5.5987  -4.3718  -4.3660
    -4.2732  -4.1802

     occupation numbers 
     1.0000   1.0000   1.0000   1.0000   1.0000   1.0000   1.0000   1.0000
     1.0000   1.0000   1.0000   1.0000   1.0000   1.0000   1.0000   1.0000
     1.0000   1.0000   1.0000   1.0000   1.0000   1.0000   1.0000   1.0000
     1.0000   1.0000   1.0000   1.0000   1.0000   1.0000   1.0000   1.0000
     1.0000   1.0000   1.0000   1.0000   1.0000   1.0000   0.0000   0.0000
     0.0000   0.0000

          k = 0.2500 0.4330 0.0000 ( 36033 PWs)   bands (ev):

   -77.4614 -77.4614 -49.1902 -49.1899 -49.1813 -49.1801 -49.1790 -49.1778
   -18.1401 -17.8078 -17.6079 -17.5581 -17.4292 -17.3899  -9.8893  -9.5754
    -9.1542  -9.1294  -8.8439  -8.7777  -8.5635  -8.3185  -8.1951  -7.8959
    -7.7515  -7.4265  -7.2696  -7.0015  -6.9497  -6.8914  -6.6514  -6.5199
    -6.2309  -6.0308  -5.8797  -5.8693  -5.7992  -5.6042  -4.3833  -4.3692
    -4.2556  -4.1177

     occupation numbers 
     1.0000   1.0000   1.0000   1.0000   1.0000   1.0000   1.0000   1.0000
     1.0000   1.0000   1.0000   1.0000   1.0000   1.0000   1.0000   1.0000
     1.0000   1.0000   1.0000   1.0000   1.0000   1.0000   1.0000   1.0000
     1.0000   1.0000   1.0000   1.0000   1.0000   1.0000   1.0000   1.0000
     1.0000   1.0000   1.0000   1.0000   1.0000   1.0000   0.0000   0.0000
     0.0000   0.0000

          k = 0.2500 0.5774 0.0000 ( 36036 PWs)   bands (ev):

   -77.4614 -77.4614 -49.1901 -49.1900 -49.1814 -49.1798 -49.1793 -49.1778
   -18.0274 -17.9130 -17.6350 -17.5033 -17.4678 -17.4009  -9.8034  -9.5577
    -9.1635  -9.0659  -8.9506  -8.6567  -8.6167  -8.4549  -8.2908  -7.9316
    -7.4577  -7.3963  -7.2527  -7.2128  -6.9438  -6.7496  -6.6838  -6.6030
    -6.2452  -6.0193  -5.8780  -5.8370  -5.7528  -5.6460  -4.3829  -4.2966
    -4.2683  -4.0876

     occupation numbers 
     1.0000   1.0000   1.0000   1.0000   1.0000   1.0000   1.0000   1.0000
     1.0000   1.0000   1.0000   1.0000   1.0000   1.0000   1.0000   1.0000
     1.0000   1.0000   1.0000   1.0000   1.0000   1.0000   1.0000   1.0000
     1.0000   1.0000   1.0000   1.0000   1.0000   1.0000   1.0000   1.0000
     1.0000   1.0000   1.0000   1.0000   1.0000   1.0000   0.0000   0.0000
     0.0000   0.0000

 ------ SPIN DOWN ----------


          k = 0.0000 0.0000 0.0000 ( 36103 PWs)   bands (ev):

   -74.5283 -74.5281 -46.2738 -46.2725 -46.2440 -46.2440 -46.2401 -46.2401
   -18.4712 -17.7632 -17.4556 -17.4556 -17.3620 -17.3620  -9.8475  -9.3832
    -8.8944  -8.8944  -8.7452  -8.7452  -8.6111  -8.0356  -7.6355  -7.6355
    -7.3462  -7.3462  -7.3459  -6.6623  -6.3114  -6.3114  -5.7745  -5.7745
    -3.7941  -3.7844  -3.7844  -3.7068  -3.4499  -3.4499  -2.9086  -2.9086
    -2.6362  -2.6362

     occupation numbers 
     1.0000   1.0000   1.0000   1.0000   1.0000   1.0000   1.0000   1.0000
     1.0000   1.0000   1.0000   1.0000   1.0000   1.0000   1.0000   1.0000
     1.0000   1.0000   1.0000   1.0000   1.0000   1.0000   1.0000   1.0000
     1.0000   1.0000   1.0000   1.0000   1.0000   1.0000   1.0000   1.0000
     0.0000   0.0000   0.0000   0.0000   0.0000   0.0000   0.0000   0.0000
     0.0000   0.0000

          k = 0.0000 0.1443 0.0000 ( 36080 PWs)   bands (ev):

   -74.5282 -74.5281 -46.2738 -46.2725 -46.2440 -46.2438 -46.2402 -46.2401
   -18.4388 -17.7443 -17.5005 -17.4744 -17.3653 -17.3644  -9.8552  -9.3772
    -8.9235  -8.9129  -8.7997  -8.7647  -8.3524  -7.8391  -7.7194  -7.6632
    -7.3665  -7.3224  -7.2653  -6.6709  -6.3536  -6.3066  -6.0496  -5.8456
    -3.8437  -3.7383  -3.7149  -3.6478  -3.4699  -3.4631  -2.9143  -2.9049
    -2.7238  -2.6547

     occupation numbers 
     1.0000   1.0000   1.0000   1.0000   1.0000   1.0000   1.0000   1.0000
     1.0000   1.0000   1.0000   1.0000   1.0000   1.0000   1.0000   1.0000
     1.0000   1.0000   1.0000   1.0000   1.0000   1.0000   1.0000   1.0000
     1.0000   1.0000   1.0000   1.0000   1.0000   1.0000   1.0000   1.0000
     0.0000   0.0000   0.0000   0.0000   0.0000   0.0000   0.0000   0.0000
     0.0000   0.0000

          k = 0.0000 0.2887 0.0000 ( 36074 PWs)   bands (ev):

   -74.5282 -74.5281 -46.2737 -46.2726 -46.2441 -46.2436 -46.2406 -46.2400
   -18.3458 -17.6913 -17.6179 -17.5117 -17.3860 -17.3788  -9.8557  -9.3526
    -9.0537  -8.9295  -8.7820  -8.4960  -8.0032  -7.9353  -7.7366  -7.4280
    -7.4129  -7.2993  -7.0932  -6.7081  -6.6872  -6.3951  -6.2959  -5.9879
    -3.8753  -3.7623  -3.6500  -3.5345  -3.4976  -3.4634  -2.9331  -2.9206
    -2.7961  -2.6987

     occupation numbers 
     1.0000   1.0000   1.0000   1.0000   1.0000   1.0000   1.0000   1.0000
     1.0000   1.0000   1.0000   1.0000   1.0000   1.0000   1.0000   1.0000
     1.0000   1.0000   1.0000   1.0000   1.0000   1.0000   1.0000   1.0000
     1.0000   1.0000   1.0000   1.0000   1.0000   1.0000   1.0000   1.0000
     0.0000   0.0000   0.0000   0.0000   0.0000   0.0000   0.0000   0.0000
     0.0000   0.0000

          k = 0.0000 0.4330 0.0000 ( 36058 PWs)   bands (ev):

   -74.5282 -74.5281 -46.2735 -46.2728 -46.2442 -46.2432 -46.2409 -46.2399
   -18.2086 -17.7772 -17.6155 -17.5430 -17.4368 -17.3946  -9.8603  -9.2706
    -9.1382  -8.8199  -8.6243  -8.2762  -8.2474  -7.7799  -7.6626  -7.4959
    -7.3283  -7.3057  -7.0006  -6.9609  -6.7608  -6.4891  -6.2963  -6.0354
    -3.9171  -3.8874  -3.6274  -3.5106  -3.5003  -3.3982  -2.9642  -2.8835
    -2.7803  -2.7319

     occupation numbers 
     1.0000   1.0000   1.0000   1.0000   1.0000   1.0000   1.0000   1.0000
     1.0000   1.0000   1.0000   1.0000   1.0000   1.0000   1.0000   1.0000
     1.0000   1.0000   1.0000   1.0000   1.0000   1.0000   1.0000   1.0000
     1.0000   1.0000   1.0000   1.0000   1.0000   1.0000   1.0000   1.0000
     0.0000   0.0000   0.0000   0.0000   0.0000   0.0000   0.0000   0.0000
     0.0000   0.0000

          k = 0.0000-0.5774 0.0000 ( 36024 PWs)   bands (ev):

   -74.5282 -74.5281 -46.2733 -46.2729 -46.2442 -46.2430 -46.2411 -46.2399
   -18.1032 -17.8916 -17.5550 -17.5542 -17.4888 -17.4014  -9.8680  -9.2076
    -9.1683  -8.6305  -8.5118  -8.4957  -8.1549  -7.8595  -7.6667  -7.4807
    -7.4797  -7.3134  -7.0123  -6.7848  -6.7392  -6.5517  -6.3410  -5.9987
    -3.9616  -3.9386  -3.6373  -3.5106  -3.4884  -3.3743  -2.9801  -2.8566
    -2.7411  -2.7407

     occupation numbers 
     1.0000   1.0000   1.0000   1.0000   1.0000   1.0000   1.0000   1.0000
     1.0000   1.0000   1.0000   1.0000   1.0000   1.0000   1.0000   1.0000
     1.0000   1.0000   1.0000   1.0000   1.0000   1.0000   1.0000   1.0000
     1.0000   1.0000   1.0000   1.0000   1.0000   1.0000   1.0000   1.0000
     0.0000   0.0000   0.0000   0.0000   0.0000   0.0000   0.0000   0.0000
     0.0000   0.0000

          k = 0.1250 0.2165 0.0000 ( 36103 PWs)   bands (ev):

   -74.5283 -74.5281 -46.2737 -46.2726 -46.2441 -46.2436 -46.2405 -46.2400
   -18.3760 -17.7084 -17.5726 -17.5121 -17.3783 -17.3714  -9.8461  -9.3727
    -9.0042  -8.9647  -8.8068  -8.5593  -8.0896  -7.8783  -7.7003  -7.5466
    -7.4377  -7.2600  -7.1574  -6.7325  -6.4295  -6.4045  -6.2896  -5.9705
    -3.8341  -3.7922  -3.6325  -3.5803  -3.4789  -3.4785  -2.9591  -2.8804
    -2.7925  -2.6803

     occupation numbers 
     1.0000   1.0000   1.0000   1.0000   1.0000   1.0000   1.0000   1.0000
     1.0000   1.0000   1.0000   1.0000   1.0000   1.0000   1.0000   1.0000
     1.0000   1.0000   1.0000   1.0000   1.0000   1.0000   1.0000   1.0000
     1.0000   1.0000   1.0000   1.0000   1.0000   1.0000   1.0000   1.0000
     0.0000   0.0000   0.0000   0.0000   0.0000   0.0000   0.0000   0.0000
     0.0000   0.0000

          k = 0.1250 0.3608 0.0000 ( 36097 PWs)   bands (ev):

   -74.5282 -74.5281 -46.2735 -46.2728 -46.2442 -46.2433 -46.2409 -46.2399
   -18.2595 -17.7016 -17.6439 -17.5589 -17.4118 -17.3875  -9.8076  -9.3454
    -9.0699  -8.9430  -8.7160  -8.3143  -8.1544  -7.7720  -7.7143  -7.5381
    -7.2474  -7.2164  -7.1515  -6.9577  -6.5977  -6.4483  -6.2947  -6.1026
    -3.8783  -3.8363  -3.6400  -3.5654  -3.4592  -3.4326  -2.9734  -2.8505
    -2.8007  -2.7159

     occupation numbers 
     1.0000   1.0000   1.0000   1.0000   1.0000   1.0000   1.0000   1.0000
     1.0000   1.0000   1.0000   1.0000   1.0000   1.0000   1.0000   1.0000
     1.0000   1.0000   1.0000   1.0000   1.0000   1.0000   1.0000   1.0000
     1.0000   1.0000   1.0000   1.0000   1.0000   1.0000   1.0000   1.0000
     0.0000   0.0000   0.0000   0.0000   0.0000   0.0000   0.0000   0.0000
     0.0000   0.0000

          k = 0.1250 0.5052 0.0000 ( 36022 PWs)   bands (ev):

   -74.5282 -74.5281 -46.2733 -46.2729 -46.2443 -46.2429 -46.2412 -46.2398
   -18.1186 -17.8535 -17.5864 -17.5677 -17.4676 -17.4011  -9.7895  -9.2581
    -9.1148  -8.7852  -8.5388  -8.4699  -8.2102  -7.8535  -7.6675  -7.5390
    -7.4181  -7.2303  -6.9057  -6.8403  -6.7203  -6.5278  -6.3081  -6.0752
    -3.9343  -3.9171  -3.6335  -3.5964  -3.4408  -3.3881  -2.9348  -2.8456
    -2.7488  -2.7378

     occupation numbers 
     1.0000   1.0000   1.0000   1.0000   1.0000   1.0000   1.0000   1.0000
     1.0000   1.0000   1.0000   1.0000   1.0000   1.0000   1.0000   1.0000
     1.0000   1.0000   1.0000   1.0000   1.0000   1.0000   1.0000   1.0000
     1.0000   1.0000   1.0000   1.0000   1.0000   1.0000   1.0000   1.0000
     0.0000   0.0000   0.0000   0.0000   0.0000   0.0000   0.0000   0.0000
     0.0000   0.0000

          k = 0.2500 0.4330 0.0000 ( 36033 PWs)   bands (ev):

   -74.5281 -74.5281 -46.2733 -46.2729 -46.2443 -46.2428 -46.2413 -46.2398
   -18.1314 -17.8100 -17.6247 -17.5773 -17.4468 -17.4053  -9.6700  -9.3561
    -8.9943  -8.9669  -8.5898  -8.4656  -8.2209  -7.8469  -7.6800  -7.5793
    -7.3789  -7.1304  -6.9976  -6.7860  -6.5651  -6.5323  -6.2583  -6.2214
    -3.9283  -3.8445  -3.7052  -3.6060  -3.4185  -3.4085  -2.9087  -2.8128
    -2.7543  -2.7347

     occupation numbers 
     1.0000   1.0000   1.0000   1.0000   1.0000   1.0000   1.0000   1.0000
     1.0000   1.0000   1.0000   1.0000   1.0000   1.0000   1.0000   1.0000
     1.0000   1.0000   1.0000   1.0000   1.0000   1.0000   1.0000   1.0000
     1.0000   1.0000   1.0000   1.0000   1.0000   1.0000   1.0000   1.0000
     0.0000   0.0000   0.0000   0.0000   0.0000   0.0000   0.0000   0.0000
     0.0000   0.0000

          k = 0.2500 0.5774 0.0000 ( 36036 PWs)   bands (ev):

   -74.5281 -74.5281 -46.2732 -46.2731 -46.2444 -46.2424 -46.2417 -46.2397
   -18.0211 -17.9119 -17.6518 -17.5224 -17.4858 -17.4162  -9.5863  -9.3409
    -8.9955  -8.8168  -8.7667  -8.4165  -8.2240  -8.1364  -7.6436  -7.6318
    -7.1562  -7.1050  -6.9601  -6.7024  -6.6152  -6.5813  -6.2714  -6.1995
    -3.9200  -3.8944  -3.7276  -3.6265  -3.4083  -3.3972  -2.8325  -2.8300
    -2.7620  -2.6965

     occupation numbers 
     1.0000   1.0000   1.0000   1.0000   1.0000   1.0000   1.0000   1.0000
     1.0000   1.0000   1.0000   1.0000   1.0000   1.0000   1.0000   1.0000
     1.0000   1.0000   1.0000   1.0000   1.0000   1.0000   1.0000   1.0000
     1.0000   1.0000   1.0000   1.0000   1.0000   1.0000   1.0000   1.0000
     0.0000   0.0000   0.0000   0.0000   0.0000   0.0000   0.0000   0.0000
     0.0000   0.0000

     the Fermi energy is    -4.9319 ev

!    total energy              =    -512.06736025 Ry
     estimated scf accuracy    <          1.5E-14 Ry
     smearing contrib. (-TS)   =      -0.00000000 Ry
     internal energy E=F+TS    =    -512.06736025 Ry

     The total energy is F=E-TS. E is the sum of the following terms:
     one-electron contribution =   -1703.03269540 Ry
     hartree contribution      =     845.72541050 Ry
     xc contribution           =     -99.94116575 Ry
     ewald contribution        =     445.18109040 Ry

     total magnetization       =     6.00 Bohr mag/cell
     absolute magnetization    =     7.13 Bohr mag/cell

     convergence has been achieved in  19 iterations

     Writing all to output data dir ./cri3_70Ry_k8x8x1.save/
 
     init_run     :      2.20s CPU      2.31s WALL (       1 calls)
     electrons    :    169.00s CPU    172.13s WALL (       1 calls)

     Called by init_run:
     wfcinit      :      1.67s CPU      1.76s WALL (       1 calls)
     wfcinit:atom :      0.03s CPU      0.05s WALL (      20 calls)
     wfcinit:wfcr :      1.46s CPU      1.51s WALL (      20 calls)
     potinit      :      0.15s CPU      0.15s WALL (       1 calls)
     hinit0       :      0.27s CPU      0.29s WALL (       1 calls)

     Called by electrons:
     c_bands      :    151.95s CPU    154.72s WALL (      19 calls)
     sum_band     :     15.84s CPU     16.07s WALL (      19 calls)
     v_of_rho     :      0.30s CPU      0.30s WALL (      20 calls)
     v_h          :      0.07s CPU      0.07s WALL (      20 calls)
     v_xc         :      0.22s CPU      0.22s WALL (      20 calls)
     mix_rho      :      0.81s CPU      0.84s WALL (      19 calls)

     Called by c_bands:
     init_us_2    :      4.04s CPU      4.10s WALL (     780 calls)
     init_us_2:cp :      4.04s CPU      4.10s WALL (     780 calls)
     cegterg      :    134.74s CPU    137.39s WALL (     385 calls)

     Called by sum_band:
     sum_band:wei :      0.01s CPU      0.01s WALL (      19 calls)
     sum_band:loo :     15.53s CPU     15.76s WALL (      19 calls)
     sum_band:buf :      0.65s CPU      0.66s WALL (     380 calls)
     sum_band:ini :      1.95s CPU      1.96s WALL (     380 calls)

     Called by *egterg:
     cdiaghg      :      6.09s CPU      6.87s WALL (    2035 calls)
     cegterg:over :      8.93s CPU      9.01s WALL (    1655 calls)
     cegterg:upda :     12.46s CPU     12.66s WALL (    1655 calls)
     cegterg:last :     15.35s CPU     15.51s WALL (     963 calls)
     cdiaghg:chol :      0.47s CPU      0.48s WALL (    2035 calls)
     cdiaghg:inve :      0.29s CPU      0.30s WALL (    2035 calls)
     cdiaghg:para :      0.41s CPU      0.43s WALL (    4070 calls)
     h_psi        :     89.52s CPU     90.92s WALL (    2060 calls)
     g_psi        :      0.62s CPU      0.62s WALL (    1655 calls)

     Called by h_psi:
     h_psi:calbec :      9.10s CPU      9.21s WALL (    2060 calls)
     vloc_psi     :     67.99s CPU     69.15s WALL (    2060 calls)
     add_vuspsi   :     11.01s CPU     11.06s WALL (    2060 calls)

     General routines
     calbec       :      9.09s CPU      9.21s WALL (    2060 calls)
     fft          :      0.16s CPU      0.18s WALL (      98 calls)
     ffts         :      0.05s CPU      0.05s WALL (      38 calls)
     fftw         :     60.54s CPU     61.55s WALL (  116012 calls)
 
     Parallel routines
 
     PWSCF        :   2m51.66s CPU   2m58.71s WALL

 
   This run was terminated on:  15:17: 8  18Jan2024            

=------------------------------------------------------------------------------=
   JOB DONE.
=------------------------------------------------------------------------------=
