
     Program PWSCF v.7.0 starts on 16Jan2024 at 10:19:55 

     This program is part of the open-source Quantum ESPRESSO suite
     for quantum simulation of materials; please cite
         "P. Giannozzi et al., J. Phys.:Condens. Matter 21 395502 (2009);
         "P. Giannozzi et al., J. Phys.:Condens. Matter 29 465901 (2017);
         "P. Giannozzi et al., J. Chem. Phys. 152 154105 (2020);
          URL http://www.quantum-espresso.org", 
     in publications or presentations arising from this work. More details at
     http://www.quantum-espresso.org/quote

     Parallel version (MPI), running on    12 processors

     MPI processes distributed on     1 nodes
     R & G space division:  proc/nbgrp/npool/nimage =      12
     111417 MiB available memory on the printing compute node when the environment starts
 
     Reading input from cri3-exp-nosoc_90Ry_k8x8x1.scf.in

     Current dimensions of program PWSCF are:
     Max number of different atomic species (ntypx) = 10
     Max number of k-points (npk) =  40000
     Max angular momentum in pseudopotentials (lmaxx) =  4

     Subspace diagonalization in iterative solution of the eigenvalue problem:
     one sub-group per band group will be used
     scalapack distributed-memory algorithm (size of sub-group:  3*  3 procs)

 
     Parallelization info
     --------------------
     sticks:   dense  smooth     PW     G-vecs:    dense   smooth      PW
     Min         348     348     92                35048    35048    4812
     Max         349     349     93                35057    35057    4819
     Sum        4177    4177   1111               420595   420595   57791
 
     Using Slab Decomposition
 


     bravais-lattice index     =            4
     lattice parameter (alat)  =      12.9767  a.u.
     unit-cell volume          =    3645.8815 (a.u.)^3
     number of atoms/cell      =            8
     number of atomic types    =            2
     number of electrons       =       112.00
     number of Kohn-Sham states=           67
     kinetic-energy cutoff     =      90.0000  Ry
     charge density cutoff     =     360.0000  Ry
     scf convergence threshold =      1.0E-13
     mixing beta               =       0.7000
     number of iterations used =            8  plain     mixing
     Exchange-correlation= PZ
                           (   1   1   0   0   0   0   0)

     celldm(1)=  12.976749  celldm(2)=   0.000000  celldm(3)=   1.926523
     celldm(4)=   0.000000  celldm(5)=   0.000000  celldm(6)=   0.000000

     crystal axes: (cart. coord. in units of alat)
               a(1) = (   1.000000   0.000000   0.000000 )  
               a(2) = (  -0.500000   0.866025   0.000000 )  
               a(3) = (   0.000000   0.000000   1.926523 )  

     reciprocal axes: (cart. coord. in units 2 pi/alat)
               b(1) = (  1.000000  0.577350  0.000000 )  
               b(2) = (  0.000000  1.154701  0.000000 )  
               b(3) = (  0.000000  0.000000  0.519070 )  


     PseudoPot. # 1 for Cr read from file:
     ./Cr_Alejandro.upf
     MD5 check sum: 19f8874af457815d5c8e16c7b8c57f71
     Pseudo is Norm-conserving + core correction, Zval = 14.0
     Generated using ONCVPSP code by D. R. Hamann
     Using radial grid of 1600 points,  6 beta functions with: 
                l(1) =   0
                l(2) =   0
                l(3) =   1
                l(4) =   1
                l(5) =   2
                l(6) =   2

     PseudoPot. # 2 for Cr read from file:
     ./I_Alejandro.upf
     MD5 check sum: 19f8874af457815d5c8e16c7b8c57f71
     Pseudo is Norm-conserving + core correction, Zval = 14.0
     Generated using ONCVPSP code by D. R. Hamann
     Using radial grid of 1600 points,  6 beta functions with: 
                l(1) =   0
                l(2) =   0
                l(3) =   1
                l(4) =   1
                l(5) =   2
                l(6) =   2

     atomic species   valence    mass     pseudopotential
        Cr            14.00    51.99000     Cr( 1.00)
        I             14.00   126.90000     Cr( 1.00)

     Starting magnetic structure 
     atomic species   magnetization
        Cr           1.000
        I            0.000

     12 Sym. Ops., with inversion, found ( 6 have fractional translation)


                                    s                        frac. trans.

      isym =  1     identity                                     

 cryst.   s( 1) = (     1          0          0      )
                  (     0          1          0      )
                  (     0          0          1      )

 cart.    s( 1) = (  1.0000000  0.0000000  0.0000000 )
                  (  0.0000000  1.0000000  0.0000000 )
                  (  0.0000000  0.0000000  1.0000000 )


      isym =  2     180 deg rotation - cart. axis [0,1,0]        

 cryst.   s( 2) = (    -1          0          0      )
                  (     1          1          0      )
                  (     0          0         -1      )

 cart.    s( 2) = ( -1.0000000  0.0000000  0.0000000 )
                  (  0.0000000  1.0000000  0.0000000 )
                  (  0.0000000  0.0000000 -1.0000000 )


      isym =  3     120 deg rotation - cryst. axis [0,0,1]       

 cryst.   s( 3) = (     0          1          0      )
                  (    -1         -1          0      )
                  (     0          0          1      )

 cart.    s( 3) = ( -0.5000000 -0.8660254  0.0000000 )
                  (  0.8660254 -0.5000000  0.0000000 )
                  (  0.0000000  0.0000000  1.0000000 )


      isym =  4     120 deg rotation - cryst. axis [0,0,-1]      

 cryst.   s( 4) = (    -1         -1          0      )
                  (     1          0          0      )
                  (     0          0          1      )

 cart.    s( 4) = ( -0.5000000  0.8660254  0.0000000 )
                  ( -0.8660254 -0.5000000  0.0000000 )
                  (  0.0000000  0.0000000  1.0000000 )


      isym =  5     180 deg rotation - cryst. axis [1,-1,0]      

 cryst.   s( 5) = (     0         -1          0      )
                  (    -1          0          0      )
                  (     0          0         -1      )

 cart.    s( 5) = (  0.5000000 -0.8660254  0.0000000 )
                  ( -0.8660254 -0.5000000  0.0000000 )
                  (  0.0000000  0.0000000 -1.0000000 )


      isym =  6     180 deg rotation - cryst. axis [2,1,0]       

 cryst.   s( 6) = (     1          1          0      )
                  (     0         -1          0      )
                  (     0          0         -1      )

 cart.    s( 6) = (  0.5000000  0.8660254  0.0000000 )
                  (  0.8660254 -0.5000000  0.0000000 )
                  (  0.0000000  0.0000000 -1.0000000 )


      isym =  7     inversion                                    

 cryst.   s( 7) = (    -1          0          0      )    f =( -0.3333333 )
                  (     0         -1          0      )       (  0.3333333 )
                  (     0          0         -1      )       (  0.0000000 )

 cart.    s( 7) = ( -1.0000000  0.0000000  0.0000000 )    f =( -0.5000000 )
                  (  0.0000000 -1.0000000  0.0000000 )       (  0.2886751 )
                  (  0.0000000  0.0000000 -1.0000000 )       (  0.0000000 )


      isym =  8     inv. 180 deg rotation - cart. axis [0,1,0]   

 cryst.   s( 8) = (     1          0          0      )    f =( -0.3333333 )
                  (    -1         -1          0      )       (  0.3333333 )
                  (     0          0          1      )       (  0.0000000 )

 cart.    s( 8) = (  1.0000000  0.0000000  0.0000000 )    f =( -0.5000000 )
                  (  0.0000000 -1.0000000  0.0000000 )       (  0.2886751 )
                  (  0.0000000  0.0000000  1.0000000 )       (  0.0000000 )


      isym =  9     inv. 120 deg rotation - cryst. axis [0,0,1]  

 cryst.   s( 9) = (     0         -1          0      )    f =( -0.3333333 )
                  (     1          1          0      )       (  0.3333333 )
                  (     0          0         -1      )       (  0.0000000 )

 cart.    s( 9) = (  0.5000000  0.8660254  0.0000000 )    f =( -0.5000000 )
                  ( -0.8660254  0.5000000  0.0000000 )       (  0.2886751 )
                  (  0.0000000  0.0000000 -1.0000000 )       (  0.0000000 )


      isym = 10     inv. 120 deg rotation - cryst. axis [0,0,-1] 

 cryst.   s(10) = (     1          1          0      )    f =( -0.3333333 )
                  (    -1          0          0      )       (  0.3333333 )
                  (     0          0         -1      )       (  0.0000000 )

 cart.    s(10) = (  0.5000000 -0.8660254  0.0000000 )    f =( -0.5000000 )
                  (  0.8660254  0.5000000  0.0000000 )       (  0.2886751 )
                  (  0.0000000  0.0000000 -1.0000000 )       (  0.0000000 )


      isym = 11     inv. 180 deg rotation - cryst. axis [1,-1,0] 

 cryst.   s(11) = (     0          1          0      )    f =( -0.3333333 )
                  (     1          0          0      )       (  0.3333333 )
                  (     0          0          1      )       (  0.0000000 )

 cart.    s(11) = ( -0.5000000  0.8660254  0.0000000 )    f =( -0.5000000 )
                  (  0.8660254  0.5000000  0.0000000 )       (  0.2886751 )
                  (  0.0000000  0.0000000  1.0000000 )       (  0.0000000 )


      isym = 12     inv. 180 deg rotation - cryst. axis [2,1,0]  

 cryst.   s(12) = (    -1         -1          0      )    f =( -0.3333333 )
                  (     0          1          0      )       (  0.3333333 )
                  (     0          0          1      )       (  0.0000000 )

 cart.    s(12) = ( -0.5000000 -0.8660254  0.0000000 )    f =( -0.5000000 )
                  ( -0.8660254  0.5000000  0.0000000 )       (  0.2886751 )
                  (  0.0000000  0.0000000  1.0000000 )       (  0.0000000 )


     point group D_3d (-3m) 
     there are  6 classes
     the character table:

       E     2C3   3C2'  i     2S6   3s_d 
A_1g   1.00  1.00  1.00  1.00  1.00  1.00
A_2g   1.00  1.00 -1.00  1.00  1.00 -1.00
E_g    2.00 -1.00  0.00  2.00 -1.00  0.00
A_1u   1.00  1.00  1.00 -1.00 -1.00 -1.00
A_2u   1.00  1.00 -1.00 -1.00 -1.00  1.00
E_u    2.00 -1.00  0.00 -2.00  1.00  0.00

     the symmetry operations in each class and the name of the first element:

     E        1
          identity                                               
     2C3      3    4
          120 deg rotation - cryst. axis [0,0,1]                 
     3C2'     2    6    5
          180 deg rotation - cart. axis [0,1,0]                  
     i        7
          inversion                                              
     2S6      9   10
          inv. 120 deg rotation - cryst. axis [0,0,1]            
     3s_d     8   12   11
          inv. 180 deg rotation - cart. axis [0,1,0]             

   Cartesian axes

     site n.     atom                  positions (alat units)
         1           Cr  tau(   1) = (   0.0000000   0.0000000   0.0000000  )
         2           Cr  tau(   2) = (   0.0000000   0.5773503   0.0000000  )
         3           I   tau(   3) = (  -0.1753225   0.8510331   0.2277694  )
         4           I   tau(   4) = (   0.3246775   0.5923426   0.2277694  )
         5           I   tau(   5) = (  -0.1493550   0.2886751   0.2277694  )
         6           I   tau(   6) = (  -0.3246775   0.5923426  -0.2277694  )
         7           I   tau(   7) = (   0.1753225   0.8510331  -0.2277694  )
         8           I   tau(   8) = (   0.1493550   0.2886751  -0.2277694  )

   Crystallographic axes

     site n.     atom                  positions (cryst. coord.)
         1           Cr  tau(   1) = (  0.0000000  0.0000000  0.0000000  )
         2           Cr  tau(   2) = (  0.3333333  0.6666667  0.0000000  )
         3           I   tau(   3) = (  0.3160217  0.9826883  0.1182283  )
         4           I   tau(   4) = (  0.6666667  0.6839783  0.1182283  )
         5           I   tau(   5) = (  0.0173117  0.3333333  0.1182283  )
         6           I   tau(   6) = (  0.0173117  0.6839783 -0.1182283  )
         7           I   tau(   7) = (  0.6666667  0.9826883 -0.1182283  )
         8           I   tau(   8) = (  0.3160217  0.3333333 -0.1182283  )

     number of k points=    10  Gaussian smearing, width (Ry)=  0.0050
                       cart. coord. in units 2pi/alat
        k(    1) = (   0.0000000   0.0000000   0.0000000), wk =   0.0156250
        k(    2) = (   0.0000000   0.1443376   0.0000000), wk =   0.0937500
        k(    3) = (   0.0000000   0.2886751   0.0000000), wk =   0.0937500
        k(    4) = (   0.0000000   0.4330127   0.0000000), wk =   0.0937500
        k(    5) = (   0.0000000  -0.5773503   0.0000000), wk =   0.0468750
        k(    6) = (   0.1250000   0.2165064   0.0000000), wk =   0.0937500
        k(    7) = (   0.1250000   0.3608439   0.0000000), wk =   0.1875000
        k(    8) = (   0.1250000   0.5051815   0.0000000), wk =   0.1875000
        k(    9) = (   0.2500000   0.4330127   0.0000000), wk =   0.0937500
        k(   10) = (   0.2500000   0.5773503   0.0000000), wk =   0.0937500

                       cryst. coord.
        k(    1) = (   0.0000000   0.0000000   0.0000000), wk =   0.0156250
        k(    2) = (   0.0000000   0.1250000   0.0000000), wk =   0.0937500
        k(    3) = (   0.0000000   0.2500000   0.0000000), wk =   0.0937500
        k(    4) = (   0.0000000   0.3750000   0.0000000), wk =   0.0937500
        k(    5) = (   0.0000000  -0.5000000   0.0000000), wk =   0.0468750
        k(    6) = (   0.1250000   0.1250000   0.0000000), wk =   0.0937500
        k(    7) = (   0.1250000   0.2500000   0.0000000), wk =   0.1875000
        k(    8) = (   0.1250000   0.3750000   0.0000000), wk =   0.1875000
        k(    9) = (   0.2500000   0.2500000   0.0000000), wk =   0.0937500
        k(   10) = (   0.2500000   0.3750000   0.0000000), wk =   0.0937500

     Dense  grid:   420595 G-vectors     FFT dimensions: (  81,  81, 160)

     Dynamical RAM for                 wfc:       4.48 MB

     Dynamical RAM for     wfc (w. buffer):      94.03 MB

     Dynamical RAM for           str. fact:       1.07 MB

     Dynamical RAM for           local pot:       0.00 MB

     Dynamical RAM for          nlocal pot:       9.62 MB

     Dynamical RAM for                qrad:       3.05 MB

     Dynamical RAM for          rho,v,vnew:       7.41 MB

     Dynamical RAM for               rhoin:       2.47 MB

     Dynamical RAM for            rho*nmix:      17.11 MB

     Dynamical RAM for           G-vectors:       2.27 MB

     Dynamical RAM for          h,s,v(r/c):       0.09 MB

     Dynamical RAM for          <psi|beta>:       0.15 MB

     Dynamical RAM for                 psi:       8.96 MB

     Dynamical RAM for                hpsi:       8.96 MB

     Dynamical RAM for      wfcinit/wfcrot:      10.84 MB

     Estimated static dynamical RAM per process >     125.74 MB

     Estimated max dynamical RAM per process >     161.00 MB

     Estimated total dynamical RAM >       1.89 GB
 ----2D----2D----2D----2D----2D----2D----2D----2D----2D----2D----2D----2D
  The code is running with the 2D cutoff
  Please refer to:
  Sohier, T., Calandra, M., & Mauri, F. (2017), 
  Density functional perturbation theory for gated two-dimensional heterostructu
 res:
  Theoretical developments and application to flexural phonons in graphene.
  Physical Review B, 96(7), 75448. https://doi.org/10.1103/PhysRevB.96.075448
 ----2D----2D----2D----2D----2D----2D----2D----2D----2D----2D----2D----2D
     Generating pointlists ...
     new r_m :   0.1637 (alat units)  2.1245 (a.u.) for type    1
     new r_m :   0.1637 (alat units)  2.1245 (a.u.) for type    2

     Initial potential from superposition of free atoms

     starting charge     111.9912, renormalised to     112.0000

     negative rho (up, down):  1.761E-07 1.371E-07
     Starting wfcs are   80 randomized atomic wfcs

     total cpu time spent up to now is       15.1 secs

     Self-consistent Calculation

     iteration #  1     ecut=    90.00 Ry     beta= 0.70
     Davidson diagonalization with overlap

---- Real-time Memory Report at c_bands before calling an iterative solver
           262 MiB given to the printing process from OS
             0 MiB allocation reported by mallinfo(arena+hblkhd)
        107249 MiB available memory on the node where the printing process lives
------------------
     c_bands:  4 eigenvalues not converged
     c_bands:  2 eigenvalues not converged
     c_bands:  4 eigenvalues not converged
     c_bands:  2 eigenvalues not converged
     c_bands:  4 eigenvalues not converged
     c_bands:  1 eigenvalues not converged
     ethr =  5.00E-06,  avg # of iterations = 19.1

     total cpu time spent up to now is      144.1 secs

     total energy              =   -1415.76988674 Ry
     estimated scf accuracy    <       8.49167547 Ry

     total magnetization       =    10.10 Bohr mag/cell
     absolute magnetization    =    11.56 Bohr mag/cell

     iteration #  2     ecut=    90.00 Ry     beta= 0.70
     Davidson diagonalization with overlap

---- Real-time Memory Report at c_bands before calling an iterative solver
           301 MiB given to the printing process from OS
             0 MiB allocation reported by mallinfo(arena+hblkhd)
        106774 MiB available memory on the node where the printing process lives
------------------
     ethr =  7.58E-03,  avg # of iterations =  7.2

     total cpu time spent up to now is      199.2 secs

     total energy              =   -1413.77986539 Ry
     estimated scf accuracy    <      85.58466474 Ry

     total magnetization       =    -2.98 Bohr mag/cell
     absolute magnetization    =     3.82 Bohr mag/cell

     iteration #  3     ecut=    90.00 Ry     beta= 0.70
     Davidson diagonalization with overlap

---- Real-time Memory Report at c_bands before calling an iterative solver
           304 MiB given to the printing process from OS
             0 MiB allocation reported by mallinfo(arena+hblkhd)
        106613 MiB available memory on the node where the printing process lives
------------------
     ethr =  7.58E-03,  avg # of iterations =  7.4

     total cpu time spent up to now is      248.2 secs

     total energy              =   -1419.26143195 Ry
     estimated scf accuracy    <       0.82708423 Ry

     total magnetization       =     2.40 Bohr mag/cell
     absolute magnetization    =    14.62 Bohr mag/cell

     iteration #  4     ecut=    90.00 Ry     beta= 0.70
     Davidson diagonalization with overlap

---- Real-time Memory Report at c_bands before calling an iterative solver
           307 MiB given to the printing process from OS
             0 MiB allocation reported by mallinfo(arena+hblkhd)
        106568 MiB available memory on the node where the printing process lives
------------------
     ethr =  7.38E-04,  avg # of iterations =  7.4

     total cpu time spent up to now is      299.9 secs

     total energy              =   -1419.99625304 Ry
     estimated scf accuracy    <       1.59328408 Ry

     total magnetization       =    -8.36 Bohr mag/cell
     absolute magnetization    =    23.18 Bohr mag/cell

     iteration #  5     ecut=    90.00 Ry     beta= 0.70
     Davidson diagonalization with overlap

---- Real-time Memory Report at c_bands before calling an iterative solver
           310 MiB given to the printing process from OS
             0 MiB allocation reported by mallinfo(arena+hblkhd)
        106513 MiB available memory on the node where the printing process lives
------------------
     ethr =  7.38E-04,  avg # of iterations =  2.4

     total cpu time spent up to now is      337.3 secs

     total energy              =   -1420.31478763 Ry
     estimated scf accuracy    <       0.49263719 Ry

     total magnetization       =   -14.34 Bohr mag/cell
     absolute magnetization    =    27.74 Bohr mag/cell

     iteration #  6     ecut=    90.00 Ry     beta= 0.70
     Davidson diagonalization with overlap

---- Real-time Memory Report at c_bands before calling an iterative solver
           313 MiB given to the printing process from OS
             0 MiB allocation reported by mallinfo(arena+hblkhd)
        106483 MiB available memory on the node where the printing process lives
------------------
     ethr =  4.40E-04,  avg # of iterations =  1.2

     total cpu time spent up to now is      368.4 secs

     total energy              =   -1420.24957965 Ry
     estimated scf accuracy    <       0.39061929 Ry

     total magnetization       =   -16.29 Bohr mag/cell
     absolute magnetization    =    29.96 Bohr mag/cell

     iteration #  7     ecut=    90.00 Ry     beta= 0.70
     Davidson diagonalization with overlap

---- Real-time Memory Report at c_bands before calling an iterative solver
           316 MiB given to the printing process from OS
             0 MiB allocation reported by mallinfo(arena+hblkhd)
        106454 MiB available memory on the node where the printing process lives
------------------
     ethr =  3.49E-04,  avg # of iterations =  1.0

     negative rho (up, down):  4.646E-06 8.896E-07

     total cpu time spent up to now is      399.1 secs

     total energy              =   -1420.47911573 Ry
     estimated scf accuracy    <       0.48986415 Ry

     total magnetization       =   -15.48 Bohr mag/cell
     absolute magnetization    =    29.37 Bohr mag/cell

     iteration #  8     ecut=    90.00 Ry     beta= 0.70
     Davidson diagonalization with overlap

---- Real-time Memory Report at c_bands before calling an iterative solver
           318 MiB given to the printing process from OS
             0 MiB allocation reported by mallinfo(arena+hblkhd)
        106403 MiB available memory on the node where the printing process lives
------------------
     ethr =  3.49E-04,  avg # of iterations =  5.5

     negative rho (up, down):  7.545E-06 0.000E+00

     total cpu time spent up to now is      445.0 secs

     total energy              =   -1420.74220026 Ry
     estimated scf accuracy    <       0.25093581 Ry

     total magnetization       =   -20.21 Bohr mag/cell
     absolute magnetization    =    34.46 Bohr mag/cell

     iteration #  9     ecut=    90.00 Ry     beta= 0.70
     Davidson diagonalization with overlap

---- Real-time Memory Report at c_bands before calling an iterative solver
           321 MiB given to the printing process from OS
             0 MiB allocation reported by mallinfo(arena+hblkhd)
        106348 MiB available memory on the node where the printing process lives
------------------
     ethr =  2.24E-04,  avg # of iterations =  2.8

     negative rho (up, down):  8.742E-08 0.000E+00

     total cpu time spent up to now is      478.8 secs

     total energy              =   -1420.79144655 Ry
     estimated scf accuracy    <       0.05297649 Ry

     total magnetization       =   -20.38 Bohr mag/cell
     absolute magnetization    =    34.01 Bohr mag/cell

     iteration # 10     ecut=    90.00 Ry     beta= 0.70
     Davidson diagonalization with overlap

---- Real-time Memory Report at c_bands before calling an iterative solver
           322 MiB given to the printing process from OS
             0 MiB allocation reported by mallinfo(arena+hblkhd)
        106283 MiB available memory on the node where the printing process lives
------------------
     c_bands:  2 eigenvalues not converged
     c_bands:  2 eigenvalues not converged
     c_bands:  3 eigenvalues not converged
     ethr =  4.73E-05,  avg # of iterations = 10.9

     total cpu time spent up to now is      527.2 secs

     total energy              =   -1420.80071521 Ry
     estimated scf accuracy    <       0.00726098 Ry

     total magnetization       =   -20.23 Bohr mag/cell
     absolute magnetization    =    33.83 Bohr mag/cell

     iteration # 11     ecut=    90.00 Ry     beta= 0.70
     Davidson diagonalization with overlap

---- Real-time Memory Report at c_bands before calling an iterative solver
           325 MiB given to the printing process from OS
             0 MiB allocation reported by mallinfo(arena+hblkhd)
        106261 MiB available memory on the node where the printing process lives
------------------
     c_bands:  2 eigenvalues not converged
     c_bands:  1 eigenvalues not converged
     c_bands:  1 eigenvalues not converged
     c_bands:  3 eigenvalues not converged
     c_bands:  3 eigenvalues not converged
     c_bands:  1 eigenvalues not converged
     c_bands:  1 eigenvalues not converged
     ethr =  6.48E-06,  avg # of iterations = 12.1

     total cpu time spent up to now is      587.1 secs

     total energy              =   -1420.80319160 Ry
     estimated scf accuracy    <       0.00185989 Ry

     total magnetization       =   -20.08 Bohr mag/cell
     absolute magnetization    =    33.75 Bohr mag/cell

     iteration # 12     ecut=    90.00 Ry     beta= 0.70
     Davidson diagonalization with overlap

---- Real-time Memory Report at c_bands before calling an iterative solver
           325 MiB given to the printing process from OS
             0 MiB allocation reported by mallinfo(arena+hblkhd)
        106206 MiB available memory on the node where the printing process lives
------------------
     c_bands:  1 eigenvalues not converged
     c_bands:  1 eigenvalues not converged
     c_bands:  2 eigenvalues not converged
     c_bands:  1 eigenvalues not converged
     c_bands:  2 eigenvalues not converged
     c_bands:  4 eigenvalues not converged
     c_bands:  2 eigenvalues not converged
     c_bands:  4 eigenvalues not converged
     ethr =  1.66E-06,  avg # of iterations = 12.2

     total cpu time spent up to now is      637.3 secs

     total energy              =   -1420.80349608 Ry
     estimated scf accuracy    <       0.00078098 Ry

     total magnetization       =   -20.11 Bohr mag/cell
     absolute magnetization    =    33.75 Bohr mag/cell

     iteration # 13     ecut=    90.00 Ry     beta= 0.70
     Davidson diagonalization with overlap

---- Real-time Memory Report at c_bands before calling an iterative solver
           325 MiB given to the printing process from OS
             0 MiB allocation reported by mallinfo(arena+hblkhd)
        106206 MiB available memory on the node where the printing process lives
------------------
     c_bands:  1 eigenvalues not converged
     c_bands:  2 eigenvalues not converged
     c_bands:  2 eigenvalues not converged
     c_bands:  1 eigenvalues not converged
     c_bands:  2 eigenvalues not converged
     c_bands:  3 eigenvalues not converged
     c_bands:  2 eigenvalues not converged
     ethr =  6.97E-07,  avg # of iterations = 12.2

     total cpu time spent up to now is      683.7 secs

     total energy              =   -1420.80357333 Ry
     estimated scf accuracy    <       0.00014299 Ry

     total magnetization       =   -20.12 Bohr mag/cell
     absolute magnetization    =    33.77 Bohr mag/cell

     iteration # 14     ecut=    90.00 Ry     beta= 0.70
     Davidson diagonalization with overlap

---- Real-time Memory Report at c_bands before calling an iterative solver
           325 MiB given to the printing process from OS
             0 MiB allocation reported by mallinfo(arena+hblkhd)
        106157 MiB available memory on the node where the printing process lives
------------------
     c_bands:  2 eigenvalues not converged
     c_bands:  2 eigenvalues not converged
     c_bands:  1 eigenvalues not converged
     c_bands:  3 eigenvalues not converged
     c_bands:  2 eigenvalues not converged
     c_bands:  3 eigenvalues not converged
     c_bands:  2 eigenvalues not converged
     ethr =  1.28E-07,  avg # of iterations = 12.8

     total cpu time spent up to now is      739.7 secs

     total energy              =   -1420.80361027 Ry
     estimated scf accuracy    <       0.00001388 Ry

     total magnetization       =   -20.13 Bohr mag/cell
     absolute magnetization    =    33.78 Bohr mag/cell

     iteration # 15     ecut=    90.00 Ry     beta= 0.70
     Davidson diagonalization with overlap

---- Real-time Memory Report at c_bands before calling an iterative solver
           325 MiB given to the printing process from OS
             0 MiB allocation reported by mallinfo(arena+hblkhd)
        106100 MiB available memory on the node where the printing process lives
------------------
     c_bands:  2 eigenvalues not converged
     c_bands:  2 eigenvalues not converged
     c_bands:  3 eigenvalues not converged
     c_bands:  3 eigenvalues not converged
     c_bands:  3 eigenvalues not converged
     c_bands:  5 eigenvalues not converged
     c_bands:  3 eigenvalues not converged
     c_bands:  1 eigenvalues not converged
     c_bands:  4 eigenvalues not converged
     c_bands:  4 eigenvalues not converged
     ethr =  1.24E-08,  avg # of iterations = 14.7

     total cpu time spent up to now is      805.7 secs

     total energy              =   -1420.80361580 Ry
     estimated scf accuracy    <       0.00000068 Ry

     total magnetization       =   -20.13 Bohr mag/cell
     absolute magnetization    =    33.79 Bohr mag/cell

     iteration # 16     ecut=    90.00 Ry     beta= 0.70
     Davidson diagonalization with overlap

---- Real-time Memory Report at c_bands before calling an iterative solver
           325 MiB given to the printing process from OS
             0 MiB allocation reported by mallinfo(arena+hblkhd)
        106067 MiB available memory on the node where the printing process lives
------------------
     c_bands:  2 eigenvalues not converged
     c_bands:  4 eigenvalues not converged
     c_bands:  5 eigenvalues not converged
     c_bands:  3 eigenvalues not converged
     c_bands:  4 eigenvalues not converged
     c_bands:  2 eigenvalues not converged
     c_bands:  3 eigenvalues not converged
     c_bands:  3 eigenvalues not converged
     c_bands:  3 eigenvalues not converged
     c_bands:  4 eigenvalues not converged
     ethr =  6.09E-10,  avg # of iterations = 18.8

     total cpu time spent up to now is      882.5 secs

     total energy              =   -1420.80361618 Ry
     estimated scf accuracy    <       0.00000016 Ry

     total magnetization       =   -20.14 Bohr mag/cell
     absolute magnetization    =    33.79 Bohr mag/cell

     iteration # 17     ecut=    90.00 Ry     beta= 0.70
     Davidson diagonalization with overlap

---- Real-time Memory Report at c_bands before calling an iterative solver
           326 MiB given to the printing process from OS
             0 MiB allocation reported by mallinfo(arena+hblkhd)
        105990 MiB available memory on the node where the printing process lives
------------------
     c_bands:  3 eigenvalues not converged
     c_bands:  2 eigenvalues not converged
     c_bands:  2 eigenvalues not converged
     c_bands:  4 eigenvalues not converged
     c_bands:  2 eigenvalues not converged
     c_bands:  2 eigenvalues not converged
     c_bands:  3 eigenvalues not converged
     c_bands:  2 eigenvalues not converged
     c_bands:  3 eigenvalues not converged
     c_bands:  3 eigenvalues not converged
     ethr =  1.39E-10,  avg # of iterations = 13.6

     total cpu time spent up to now is      941.0 secs

     total energy              =   -1420.80361622 Ry
     estimated scf accuracy    <       0.00000011 Ry

     total magnetization       =   -20.14 Bohr mag/cell
     absolute magnetization    =    33.79 Bohr mag/cell

     iteration # 18     ecut=    90.00 Ry     beta= 0.70
     Davidson diagonalization with overlap

---- Real-time Memory Report at c_bands before calling an iterative solver
           326 MiB given to the printing process from OS
             0 MiB allocation reported by mallinfo(arena+hblkhd)
        105964 MiB available memory on the node where the printing process lives
------------------
     c_bands:  1 eigenvalues not converged
     c_bands:  1 eigenvalues not converged
     c_bands:  2 eigenvalues not converged
     c_bands:  3 eigenvalues not converged
     c_bands:  2 eigenvalues not converged
     c_bands:  1 eigenvalues not converged
     c_bands:  2 eigenvalues not converged
     c_bands:  1 eigenvalues not converged
     c_bands:  2 eigenvalues not converged
     c_bands:  3 eigenvalues not converged
     ethr =  1.01E-10,  avg # of iterations = 12.1

     total cpu time spent up to now is      988.7 secs

     total energy              =   -1420.80361624 Ry
     estimated scf accuracy    <          5.4E-09 Ry

     total magnetization       =   -20.14 Bohr mag/cell
     absolute magnetization    =    33.79 Bohr mag/cell

     iteration # 19     ecut=    90.00 Ry     beta= 0.70
     Davidson diagonalization with overlap

---- Real-time Memory Report at c_bands before calling an iterative solver
           326 MiB given to the printing process from OS
             0 MiB allocation reported by mallinfo(arena+hblkhd)
        105953 MiB available memory on the node where the printing process lives
------------------
     c_bands:  2 eigenvalues not converged
     c_bands:  2 eigenvalues not converged
     c_bands:  3 eigenvalues not converged
     c_bands:  3 eigenvalues not converged
     c_bands:  3 eigenvalues not converged
     c_bands:  2 eigenvalues not converged
     c_bands:  3 eigenvalues not converged
     c_bands:  3 eigenvalues not converged
     c_bands:  4 eigenvalues not converged
     c_bands:  4 eigenvalues not converged
     c_bands:  1 eigenvalues not converged
     ethr =  4.80E-12,  avg # of iterations = 16.5

     total cpu time spent up to now is     1065.7 secs

     total energy              =   -1420.80361624 Ry
     estimated scf accuracy    <          9.2E-09 Ry

     total magnetization       =   -20.14 Bohr mag/cell
     absolute magnetization    =    33.79 Bohr mag/cell

     iteration # 20     ecut=    90.00 Ry     beta= 0.70
     Davidson diagonalization with overlap

---- Real-time Memory Report at c_bands before calling an iterative solver
           327 MiB given to the printing process from OS
             0 MiB allocation reported by mallinfo(arena+hblkhd)
        105879 MiB available memory on the node where the printing process lives
------------------
     c_bands:  1 eigenvalues not converged
     c_bands:  1 eigenvalues not converged
     c_bands:  2 eigenvalues not converged
     c_bands:  3 eigenvalues not converged
     c_bands:  2 eigenvalues not converged
     c_bands:  2 eigenvalues not converged
     c_bands:  3 eigenvalues not converged
     c_bands:  2 eigenvalues not converged
     c_bands:  2 eigenvalues not converged
     c_bands:  4 eigenvalues not converged
     ethr =  4.80E-12,  avg # of iterations = 11.4

     total cpu time spent up to now is     1111.1 secs

     total energy              =   -1420.80361624 Ry
     estimated scf accuracy    <          4.4E-10 Ry

     total magnetization       =   -20.14 Bohr mag/cell
     absolute magnetization    =    33.79 Bohr mag/cell

     iteration # 21     ecut=    90.00 Ry     beta= 0.70
     Davidson diagonalization with overlap

---- Real-time Memory Report at c_bands before calling an iterative solver
           327 MiB given to the printing process from OS
             0 MiB allocation reported by mallinfo(arena+hblkhd)
        105870 MiB available memory on the node where the printing process lives
------------------
     c_bands:  1 eigenvalues not converged
     c_bands:  2 eigenvalues not converged
     c_bands:  2 eigenvalues not converged
     c_bands:  3 eigenvalues not converged
     c_bands:  2 eigenvalues not converged
     c_bands:  2 eigenvalues not converged
     c_bands:  2 eigenvalues not converged
     c_bands:  3 eigenvalues not converged
     c_bands:  4 eigenvalues not converged
     c_bands:  4 eigenvalues not converged
     ethr =  3.91E-13,  avg # of iterations = 15.8

     total cpu time spent up to now is     1185.6 secs

     total energy              =   -1420.80361624 Ry
     estimated scf accuracy    <          6.0E-10 Ry

     total magnetization       =   -20.14 Bohr mag/cell
     absolute magnetization    =    33.79 Bohr mag/cell

     iteration # 22     ecut=    90.00 Ry     beta= 0.70
     Davidson diagonalization with overlap

---- Real-time Memory Report at c_bands before calling an iterative solver
           327 MiB given to the printing process from OS
             0 MiB allocation reported by mallinfo(arena+hblkhd)
        105815 MiB available memory on the node where the printing process lives
------------------
     c_bands:  1 eigenvalues not converged
     c_bands:  1 eigenvalues not converged
     c_bands:  2 eigenvalues not converged
     c_bands:  3 eigenvalues not converged
     c_bands:  2 eigenvalues not converged
     c_bands:  1 eigenvalues not converged
     c_bands:  2 eigenvalues not converged
     c_bands:  2 eigenvalues not converged
     c_bands:  2 eigenvalues not converged
     c_bands:  4 eigenvalues not converged
     ethr =  3.91E-13,  avg # of iterations = 11.4

     total cpu time spent up to now is     1231.1 secs

     total energy              =   -1420.80361624 Ry
     estimated scf accuracy    <          1.6E-11 Ry

     total magnetization       =   -20.14 Bohr mag/cell
     absolute magnetization    =    33.79 Bohr mag/cell

     iteration # 23     ecut=    90.00 Ry     beta= 0.70
     Davidson diagonalization with overlap

---- Real-time Memory Report at c_bands before calling an iterative solver
           327 MiB given to the printing process from OS
             0 MiB allocation reported by mallinfo(arena+hblkhd)
        105794 MiB available memory on the node where the printing process lives
------------------
     c_bands:  1 eigenvalues not converged
     c_bands:  2 eigenvalues not converged
     c_bands:  2 eigenvalues not converged
     c_bands:  3 eigenvalues not converged
     c_bands:  2 eigenvalues not converged
     c_bands:  1 eigenvalues not converged
     c_bands:  2 eigenvalues not converged
     c_bands:  1 eigenvalues not converged
     c_bands:  3 eigenvalues not converged
     c_bands:  3 eigenvalues not converged
     ethr =  1.00E-13,  avg # of iterations = 13.1

     total cpu time spent up to now is     1277.3 secs

     total energy              =   -1420.80361624 Ry
     estimated scf accuracy    <          4.1E-13 Ry

     total magnetization       =   -20.14 Bohr mag/cell
     absolute magnetization    =    33.79 Bohr mag/cell

     iteration # 24     ecut=    90.00 Ry     beta= 0.70
     Davidson diagonalization with overlap

---- Real-time Memory Report at c_bands before calling an iterative solver
           327 MiB given to the printing process from OS
             0 MiB allocation reported by mallinfo(arena+hblkhd)
        105789 MiB available memory on the node where the printing process lives
------------------
     c_bands:  1 eigenvalues not converged
     c_bands:  1 eigenvalues not converged
     c_bands:  1 eigenvalues not converged
     c_bands:  3 eigenvalues not converged
     c_bands:  1 eigenvalues not converged
     c_bands:  1 eigenvalues not converged
     c_bands:  2 eigenvalues not converged
     c_bands:  1 eigenvalues not converged
     c_bands:  2 eigenvalues not converged
     c_bands:  3 eigenvalues not converged
     ethr =  1.00E-13,  avg # of iterations = 10.5

     total cpu time spent up to now is     1316.9 secs

     total energy              =   -1420.80361624 Ry
     estimated scf accuracy    <          1.1E-13 Ry

     total magnetization       =   -20.14 Bohr mag/cell
     absolute magnetization    =    33.79 Bohr mag/cell

     iteration # 25     ecut=    90.00 Ry     beta= 0.70
     Davidson diagonalization with overlap

---- Real-time Memory Report at c_bands before calling an iterative solver
           327 MiB given to the printing process from OS
             0 MiB allocation reported by mallinfo(arena+hblkhd)
        105744 MiB available memory on the node where the printing process lives
------------------
     c_bands:  1 eigenvalues not converged
     c_bands:  1 eigenvalues not converged
     c_bands:  3 eigenvalues not converged
     c_bands:  1 eigenvalues not converged
     c_bands:  1 eigenvalues not converged
     c_bands:  2 eigenvalues not converged
     c_bands:  1 eigenvalues not converged
     c_bands:  2 eigenvalues not converged
     c_bands:  3 eigenvalues not converged
     ethr =  1.00E-13,  avg # of iterations =  9.6

     total cpu time spent up to now is     1353.8 secs

     total energy              =   -1420.80361624 Ry
     estimated scf accuracy    <          1.2E-13 Ry

     total magnetization       =   -20.14 Bohr mag/cell
     absolute magnetization    =    33.79 Bohr mag/cell

     iteration # 26     ecut=    90.00 Ry     beta= 0.70
     Davidson diagonalization with overlap

---- Real-time Memory Report at c_bands before calling an iterative solver
           327 MiB given to the printing process from OS
             0 MiB allocation reported by mallinfo(arena+hblkhd)
        105743 MiB available memory on the node where the printing process lives
------------------
     c_bands:  1 eigenvalues not converged
     c_bands:  1 eigenvalues not converged
     c_bands:  3 eigenvalues not converged
     c_bands:  1 eigenvalues not converged
     c_bands:  1 eigenvalues not converged
     c_bands:  2 eigenvalues not converged
     c_bands:  1 eigenvalues not converged
     c_bands:  2 eigenvalues not converged
     c_bands:  3 eigenvalues not converged
     ethr =  1.00E-13,  avg # of iterations =  9.6
 
     Magnetic moment per site  (integrated on atomic sphere of radius R)
     atom   1 (R=0.164)  charge= 12.4602  magn=  3.2193
     atom   2 (R=0.164)  charge= 12.4602  magn=  3.2193
     atom   3 (R=0.164)  charge= 12.3476  magn= -3.8797
     atom   4 (R=0.164)  charge= 12.3476  magn= -3.8797
     atom   5 (R=0.164)  charge= 12.3476  magn= -3.8797
     atom   6 (R=0.164)  charge= 12.3476  magn= -3.8797
     atom   7 (R=0.164)  charge= 12.3476  magn= -3.8797
     atom   8 (R=0.164)  charge= 12.3476  magn= -3.8797

     total cpu time spent up to now is     1391.4 secs

     End of self-consistent calculation

 ------ SPIN UP ------------


          k = 0.0000 0.0000 0.0000 ( 52593 PWs)   bands (ev):

   -74.9043 -74.9040 -71.0910 -71.0908 -71.0907 -71.0907 -71.0906 -71.0906
   -46.6530 -46.6530 -46.6504 -46.6504 -46.6499 -46.6490 -42.8976 -42.8928
   -42.8924 -42.8924 -42.8912 -42.8912 -42.8795 -42.8766 -42.8766 -42.8745
   -42.8745 -42.8734 -42.7981 -42.7965 -42.7965 -42.7952 -42.7952 -42.7951
    -7.3661  -4.9456  -4.7567  -4.7567  -4.6785  -4.6763  -4.6594  -4.6594
    -4.5829  -4.5829  -4.5034  -4.5034  -3.8737  -3.1979  -3.1979  -2.6434
    -2.2330  -2.1838  -2.1838  -1.6443  -1.4396  -1.4295  -1.4295  -1.3278
    -1.3278  -1.2706  -1.2213  -1.1477  -1.1477  -1.1277  -1.0056  -0.7797
    -0.7437  -0.7437  -0.6439

     occupation numbers 
     1.0000   1.0000   1.0000   1.0000   1.0000   1.0000   1.0000   1.0000
     1.0000   1.0000   1.0000   1.0000   1.0000   1.0000   1.0000   1.0000
     1.0000   1.0000   1.0000   1.0000   1.0000   1.0000   1.0000   1.0000
     1.0000   1.0000   1.0000   1.0000   1.0000   1.0000   1.0000   1.0000
     1.0000   1.0000   1.0000   1.0000   1.0000   1.0000   1.0000   1.0000
     1.0000   1.0000   1.0000   1.0000   1.0000   0.0000   0.0000   0.0000
     0.0000   0.0000   0.0000   0.0000   0.0000   0.0000   0.0000   0.0000
     0.0000   0.0000   0.0000   0.0000   0.0000   0.0000   0.0000   0.0000
     0.0000   0.0000   0.0000

          k = 0.0000 0.1443 0.0000 ( 52628 PWs)   bands (ev):

   -74.9043 -74.9040 -71.0909 -71.0908 -71.0907 -71.0907 -71.0906 -71.0906
   -46.6530 -46.6529 -46.6504 -46.6504 -46.6498 -46.6490 -42.8975 -42.8929
   -42.8925 -42.8924 -42.8914 -42.8911 -42.8793 -42.8767 -42.8766 -42.8746
   -42.8744 -42.8733 -42.7981 -42.7965 -42.7965 -42.7953 -42.7953 -42.7951
    -7.3039  -4.9386  -4.9310  -4.7549  -4.7088  -4.6702  -4.6502  -4.6218
    -4.5951  -4.5899  -4.4805  -4.4368  -3.9564  -3.3482  -3.1755  -2.7066
    -2.3630  -2.0094  -1.9788  -1.6903  -1.4816  -1.4597  -1.4417  -1.3365
    -1.3348  -1.2464  -1.1905  -1.1466  -1.1412  -1.1267  -0.9339  -0.7822
    -0.7722  -0.7360  -0.6418

     occupation numbers 
     1.0000   1.0000   1.0000   1.0000   1.0000   1.0000   1.0000   1.0000
     1.0000   1.0000   1.0000   1.0000   1.0000   1.0000   1.0000   1.0000
     1.0000   1.0000   1.0000   1.0000   1.0000   1.0000   1.0000   1.0000
     1.0000   1.0000   1.0000   1.0000   1.0000   1.0000   1.0000   1.0000
     1.0000   1.0000   1.0000   1.0000   1.0000   1.0000   1.0000   1.0000
     1.0000   1.0000   1.0000   1.0000   1.0000   0.0236   0.0000   0.0000
     0.0000   0.0000   0.0000   0.0000   0.0000   0.0000   0.0000   0.0000
     0.0000   0.0000   0.0000   0.0000   0.0000   0.0000   0.0000   0.0000
     0.0000   0.0000   0.0000

          k = 0.0000 0.2887 0.0000 ( 52560 PWs)   bands (ev):

   -74.9043 -74.9040 -71.0909 -71.0908 -71.0908 -71.0907 -71.0906 -71.0906
   -46.6529 -46.6526 -46.6507 -46.6504 -46.6497 -46.6491 -42.8971 -42.8929
   -42.8926 -42.8926 -42.8917 -42.8909 -42.8788 -42.8770 -42.8768 -42.8748
   -42.8743 -42.8733 -42.7979 -42.7966 -42.7965 -42.7954 -42.7953 -42.7951
    -7.1223  -5.3138  -4.8993  -4.7921  -4.7597  -4.7029  -4.6608  -4.6260
    -4.5535  -4.5168  -4.4595  -4.2757  -4.0455  -3.6416  -3.2796  -2.6183
    -2.5497  -1.8586  -1.7777  -1.7208  -1.5644  -1.4620  -1.4511  -1.3719
    -1.3660  -1.1861  -1.1813  -1.1313  -1.0963  -1.0671  -0.8494  -0.7876
    -0.7789  -0.7174  -0.6431

     occupation numbers 
     1.0000   1.0000   1.0000   1.0000   1.0000   1.0000   1.0000   1.0000
     1.0000   1.0000   1.0000   1.0000   1.0000   1.0000   1.0000   1.0000
     1.0000   1.0000   1.0000   1.0000   1.0000   1.0000   1.0000   1.0000
     1.0000   1.0000   1.0000   1.0000   1.0000   1.0000   1.0000   1.0000
     1.0000   1.0000   1.0000   1.0000   1.0000   1.0000   1.0000   1.0000
     1.0000   1.0000   1.0000   1.0000   1.0000   1.0000   0.0003   0.0000
     0.0000   0.0000   0.0000   0.0000   0.0000   0.0000   0.0000   0.0000
     0.0000   0.0000   0.0000   0.0000   0.0000   0.0000   0.0000   0.0000
     0.0000   0.0000   0.0000

          k = 0.0000 0.4330 0.0000 ( 52578 PWs)   bands (ev):

   -74.9042 -74.9041 -71.0909 -71.0908 -71.0908 -71.0907 -71.0906 -71.0906
   -46.6529 -46.6523 -46.6510 -46.6505 -46.6496 -46.6492 -42.8965 -42.8934
   -42.8930 -42.8926 -42.8917 -42.8907 -42.8781 -42.8773 -42.8770 -42.8750
   -42.8741 -42.8733 -42.7977 -42.7968 -42.7964 -42.7954 -42.7953 -42.7951
    -6.8475  -5.7661  -4.8702  -4.8670  -4.7698  -4.7424  -4.6740  -4.6190
    -4.5248  -4.4571  -4.3833  -4.0711  -4.0317  -3.9181  -3.3852  -3.0034
    -2.3022  -1.9102  -1.7431  -1.7117  -1.5499  -1.4447  -1.4185  -1.3957
    -1.3712  -1.1913  -1.1233  -1.0991  -1.0320  -0.9854  -0.9371  -0.7573
    -0.7006  -0.6877  -0.6719

     occupation numbers 
     1.0000   1.0000   1.0000   1.0000   1.0000   1.0000   1.0000   1.0000
     1.0000   1.0000   1.0000   1.0000   1.0000   1.0000   1.0000   1.0000
     1.0000   1.0000   1.0000   1.0000   1.0000   1.0000   1.0000   1.0000
     1.0000   1.0000   1.0000   1.0000   1.0000   1.0000   1.0000   1.0000
     1.0000   1.0000   1.0000   1.0000   1.0000   1.0000   1.0000   1.0000
     1.0000   1.0000   1.0000   1.0000   1.0000   1.0000   0.1122   0.0000
     0.0000   0.0000   0.0000   0.0000   0.0000   0.0000   0.0000   0.0000
     0.0000   0.0000   0.0000   0.0000   0.0000   0.0000   0.0000   0.0000
     0.0000   0.0000   0.0000

          k = 0.0000-0.5774 0.0000 ( 52578 PWs)   bands (ev):

   -74.9042 -74.9041 -71.0909 -71.0908 -71.0908 -71.0907 -71.0907 -71.0906
   -46.6529 -46.6520 -46.6513 -46.6505 -46.6496 -46.6492 -42.8961 -42.8939
   -42.8930 -42.8926 -42.8917 -42.8906 -42.8777 -42.8774 -42.8773 -42.8751
   -42.8740 -42.8733 -42.7975 -42.7969 -42.7964 -42.7955 -42.7953 -42.7951
    -6.6394  -6.0439  -4.8958  -4.8585  -4.7743  -4.7584  -4.6793  -4.6151
    -4.5133  -4.4600  -4.2589  -4.1088  -4.0735  -3.8198  -3.4217  -3.2637
    -2.1543  -1.9327  -1.8455  -1.6862  -1.5501  -1.4308  -1.4041  -1.3682
    -1.3663  -1.1834  -1.1241  -1.0612  -0.9916  -0.9822  -0.9496  -0.7259
    -0.7157  -0.6945  -0.6738

     occupation numbers 
     1.0000   1.0000   1.0000   1.0000   1.0000   1.0000   1.0000   1.0000
     1.0000   1.0000   1.0000   1.0000   1.0000   1.0000   1.0000   1.0000
     1.0000   1.0000   1.0000   1.0000   1.0000   1.0000   1.0000   1.0000
     1.0000   1.0000   1.0000   1.0000   1.0000   1.0000   1.0000   1.0000
     1.0000   1.0000   1.0000   1.0000   1.0000   1.0000   1.0000   1.0000
     1.0000   1.0000   1.0000   1.0000   1.0000   1.0000   0.3240   0.0001
     0.0000   0.0000   0.0000   0.0000   0.0000   0.0000   0.0000   0.0000
     0.0000   0.0000   0.0000   0.0000   0.0000   0.0000   0.0000   0.0000
     0.0000   0.0000   0.0000

          k = 0.1250 0.2165 0.0000 ( 52635 PWs)   bands (ev):

   -74.9043 -74.9040 -71.0909 -71.0908 -71.0907 -71.0907 -71.0906 -71.0906
   -46.6529 -46.6527 -46.6506 -46.6504 -46.6498 -46.6491 -42.8972 -42.8929
   -42.8926 -42.8923 -42.8918 -42.8909 -42.8789 -42.8769 -42.8767 -42.8747
   -42.8743 -42.8733 -42.7979 -42.7966 -42.7965 -42.7953 -42.7953 -42.7951
    -7.1817  -5.1925  -4.9081  -4.7850  -4.7096  -4.6826  -4.6755  -4.6494
    -4.5818  -4.5488  -4.4405  -4.3371  -4.0273  -3.6387  -3.0857  -2.7272
    -2.4896  -1.8586  -1.8222  -1.7657  -1.5152  -1.4885  -1.4497  -1.3770
    -1.3344  -1.2027  -1.1698  -1.1487  -1.1103  -1.0948  -0.8300  -0.8190
    -0.7816  -0.7233  -0.6408

     occupation numbers 
     1.0000   1.0000   1.0000   1.0000   1.0000   1.0000   1.0000   1.0000
     1.0000   1.0000   1.0000   1.0000   1.0000   1.0000   1.0000   1.0000
     1.0000   1.0000   1.0000   1.0000   1.0000   1.0000   1.0000   1.0000
     1.0000   1.0000   1.0000   1.0000   1.0000   1.0000   1.0000   1.0000
     1.0000   1.0000   1.0000   1.0000   1.0000   1.0000   1.0000   1.0000
     1.0000   1.0000   1.0000   1.0000   1.0000   1.0000   0.0000   0.0000
     0.0000   0.0000   0.0000   0.0000   0.0000   0.0000   0.0000   0.0000
     0.0000   0.0000   0.0000   0.0000   0.0000   0.0000   0.0000   0.0000
     0.0000   0.0000   0.0000

          k = 0.1250 0.3608 0.0000 ( 52572 PWs)   bands (ev):

   -74.9042 -74.9041 -71.0909 -71.0908 -71.0908 -71.0907 -71.0906 -71.0906
   -46.6529 -46.6524 -46.6509 -46.6504 -46.6496 -46.6491 -42.8967 -42.8931
   -42.8929 -42.8925 -42.8920 -42.8906 -42.8783 -42.8772 -42.8769 -42.8749
   -42.8741 -42.8733 -42.7977 -42.7967 -42.7965 -42.7954 -42.7953 -42.7951
    -6.9494  -5.5852  -4.8788  -4.8512  -4.7515  -4.7164  -4.6896  -4.6339
    -4.5498  -4.5130  -4.3952  -4.1380  -4.0630  -3.9319  -3.1404  -2.7923
    -2.5225  -1.9899  -1.7207  -1.6592  -1.5485  -1.4787  -1.4407  -1.4028
    -1.3569  -1.1851  -1.1396  -1.1186  -1.0507  -1.0225  -0.8974  -0.7703
    -0.7322  -0.6818  -0.6613

     occupation numbers 
     1.0000   1.0000   1.0000   1.0000   1.0000   1.0000   1.0000   1.0000
     1.0000   1.0000   1.0000   1.0000   1.0000   1.0000   1.0000   1.0000
     1.0000   1.0000   1.0000   1.0000   1.0000   1.0000   1.0000   1.0000
     1.0000   1.0000   1.0000   1.0000   1.0000   1.0000   1.0000   1.0000
     1.0000   1.0000   1.0000   1.0000   1.0000   1.0000   1.0000   1.0000
     1.0000   1.0000   1.0000   1.0000   1.0000   1.0000   0.0000   0.0000
     0.0000   0.0000   0.0000   0.0000   0.0000   0.0000   0.0000   0.0000
     0.0000   0.0000   0.0000   0.0000   0.0000   0.0000   0.0000   0.0000
     0.0000   0.0000   0.0000

          k = 0.1250 0.5052 0.0000 ( 52542 PWs)   bands (ev):

   -74.9042 -74.9041 -71.0909 -71.0908 -71.0908 -71.0907 -71.0907 -71.0906
   -46.6529 -46.6521 -46.6513 -46.6505 -46.6496 -46.6492 -42.8961 -42.8939
   -42.8929 -42.8926 -42.8920 -42.8904 -42.8778 -42.8774 -42.8771 -42.8751
   -42.8740 -42.8734 -42.7976 -42.7968 -42.7965 -42.7954 -42.7953 -42.7952
    -6.6629  -5.9797  -4.9134  -4.8567  -4.7739  -4.7435  -4.6978  -4.6159
    -4.5182  -4.5015  -4.3145  -4.1689  -4.0672  -3.8442  -3.2841  -3.0746
    -2.2929  -2.1015  -1.7896  -1.6304  -1.5195  -1.4397  -1.4266  -1.3947
    -1.3618  -1.1785  -1.1269  -1.0748  -0.9993  -0.9669  -0.9587  -0.7401
    -0.7097  -0.6934  -0.6730

     occupation numbers 
     1.0000   1.0000   1.0000   1.0000   1.0000   1.0000   1.0000   1.0000
     1.0000   1.0000   1.0000   1.0000   1.0000   1.0000   1.0000   1.0000
     1.0000   1.0000   1.0000   1.0000   1.0000   1.0000   1.0000   1.0000
     1.0000   1.0000   1.0000   1.0000   1.0000   1.0000   1.0000   1.0000
     1.0000   1.0000   1.0000   1.0000   1.0000   1.0000   1.0000   1.0000
     1.0000   1.0000   1.0000   1.0000   1.0000   1.0000   0.0005   0.0000
     0.0000   0.0000   0.0000   0.0000   0.0000   0.0000   0.0000   0.0000
     0.0000   0.0000   0.0000   0.0000   0.0000   0.0000   0.0000   0.0000
     0.0000   0.0000   0.0000

          k = 0.2500 0.4330 0.0000 ( 52526 PWs)   bands (ev):

   -74.9042 -74.9041 -71.0909 -71.0908 -71.0908 -71.0907 -71.0907 -71.0906
   -46.6529 -46.6521 -46.6513 -46.6504 -46.6495 -46.6492 -42.8960 -42.8939
   -42.8929 -42.8925 -42.8923 -42.8903 -42.8779 -42.8774 -42.8771 -42.8751
   -42.8739 -42.8734 -42.7976 -42.7967 -42.7965 -42.7954 -42.7953 -42.7952
    -6.6836  -5.9127  -4.9380  -4.8560  -4.7630  -4.7339  -4.7050  -4.6456
    -4.5799  -4.5009  -4.3423  -4.1877  -4.0610  -3.8657  -3.1954  -2.6851
    -2.6262  -2.2144  -1.7767  -1.5407  -1.5213  -1.4568  -1.4539  -1.3975
    -1.3805  -1.1707  -1.1302  -1.0838  -0.9879  -0.9869  -0.9510  -0.7501
    -0.7154  -0.6789  -0.6664

     occupation numbers 
     1.0000   1.0000   1.0000   1.0000   1.0000   1.0000   1.0000   1.0000
     1.0000   1.0000   1.0000   1.0000   1.0000   1.0000   1.0000   1.0000
     1.0000   1.0000   1.0000   1.0000   1.0000   1.0000   1.0000   1.0000
     1.0000   1.0000   1.0000   1.0000   1.0000   1.0000   1.0000   1.0000
     1.0000   1.0000   1.0000   1.0000   1.0000   1.0000   1.0000   1.0000
     1.0000   1.0000   1.0000   1.0000   1.0000   1.0000   0.0000   0.0000
     0.0000   0.0000   0.0000   0.0000   0.0000   0.0000   0.0000   0.0000
     0.0000   0.0000   0.0000   0.0000   0.0000   0.0000   0.0000   0.0000
     0.0000   0.0000   0.0000

          k = 0.2500 0.5774 0.0000 ( 52520 PWs)   bands (ev):

   -74.9042 -74.9041 -71.0908 -71.0908 -71.0908 -71.0907 -71.0907 -71.0906
   -46.6529 -46.6519 -46.6515 -46.6504 -46.6495 -46.6493 -42.8955 -42.8945
   -42.8929 -42.8927 -42.8923 -42.8902 -42.8775 -42.8775 -42.8772 -42.8752
   -42.8738 -42.8735 -42.7975 -42.7968 -42.7966 -42.7954 -42.7953 -42.7952
    -6.4492  -6.1679  -4.9883  -4.8503  -4.7647  -4.7346  -4.7292  -4.6190
    -4.6130  -4.4958  -4.2998  -4.2758  -4.0567  -3.6412  -3.3923  -2.7414
    -2.4170  -2.3967  -1.8319  -1.5233  -1.4723  -1.4544  -1.4301  -1.4190
    -1.3854  -1.1574  -1.1335  -1.0737  -0.9768  -0.9722  -0.9601  -0.7184
    -0.7074  -0.6951  -0.6804

     occupation numbers 
     1.0000   1.0000   1.0000   1.0000   1.0000   1.0000   1.0000   1.0000
     1.0000   1.0000   1.0000   1.0000   1.0000   1.0000   1.0000   1.0000
     1.0000   1.0000   1.0000   1.0000   1.0000   1.0000   1.0000   1.0000
     1.0000   1.0000   1.0000   1.0000   1.0000   1.0000   1.0000   1.0000
     1.0000   1.0000   1.0000   1.0000   1.0000   1.0000   1.0000   1.0000
     1.0000   1.0000   1.0000   1.0000   1.0000   1.0000   0.1430   0.0000
     0.0000   0.0000   0.0000   0.0000   0.0000   0.0000   0.0000   0.0000
     0.0000   0.0000   0.0000   0.0000   0.0000   0.0000   0.0000   0.0000
     0.0000   0.0000   0.0000

 ------ SPIN DOWN ----------


          k = 0.0000 0.0000 0.0000 ( 52593 PWs)   bands (ev):

   -74.9049 -74.9045 -74.9044 -74.9044 -74.9043 -74.9043 -71.7145 -71.7145
   -46.6986 -46.6986 -46.6975 -46.6970 -46.6960 -46.6960 -46.6830 -46.6810
   -46.6792 -46.6792 -46.6782 -46.6782 -46.6726 -46.6715 -46.6715 -46.6702
   -46.6702 -46.6696 -43.4583 -43.4566 -43.4560 -43.4560 -43.4542 -43.4542
    -7.7950  -6.0190  -5.2754  -5.0157  -5.0157  -4.8860  -4.8860  -4.7452
    -4.6507  -4.6131  -4.6131  -4.5495  -4.4768  -4.4768  -4.4372  -4.4372
    -4.3963  -4.3802  -4.3802  -4.3290  -4.3235  -4.3093  -4.3093  -4.1811
    -4.1035  -4.0385  -3.9941  -3.9941  -3.9692  -3.9692  -3.9384  -3.9384
    -3.2680  -3.2680  -3.0143

     occupation numbers 
     1.0000   1.0000   1.0000   1.0000   1.0000   1.0000   1.0000   1.0000
     1.0000   1.0000   1.0000   1.0000   1.0000   1.0000   1.0000   1.0000
     1.0000   1.0000   1.0000   1.0000   1.0000   1.0000   1.0000   1.0000
     1.0000   1.0000   1.0000   1.0000   1.0000   1.0000   1.0000   1.0000
     1.0000   1.0000   1.0000   1.0000   1.0000   1.0000   1.0000   1.0000
     1.0000   1.0000   1.0000   1.0000   1.0000   1.0000   1.0000   1.0000
     1.0000   1.0000   1.0000   1.0000   1.0000   1.0000   1.0000   1.0000
     1.0000   1.0000   1.0000   1.0000   1.0000   1.0000   1.0000   1.0000
     0.0001   0.0001   0.0000

          k = 0.0000 0.1443 0.0000 ( 52628 PWs)   bands (ev):

   -74.9049 -74.9045 -74.9044 -74.9044 -74.9043 -74.9043 -71.7145 -71.7145
   -46.6986 -46.6985 -46.6975 -46.6969 -46.6960 -46.6960 -46.6828 -46.6810
   -46.6794 -46.6793 -46.6782 -46.6781 -46.6726 -46.6716 -46.6716 -46.6701
   -46.6701 -46.6696 -43.4583 -43.4566 -43.4560 -43.4559 -43.4542 -43.4541
    -7.7292  -5.9591  -5.4158  -5.0722  -5.0146  -4.9136  -4.8813  -4.7489
    -4.6804  -4.6123  -4.6120  -4.5377  -4.4803  -4.4635  -4.4505  -4.4424
    -4.4158  -4.3950  -4.3633  -4.3308  -4.3203  -4.2996  -4.2862  -4.1991
    -4.0737  -4.0385  -4.0110  -4.0026  -3.9837  -3.9713  -3.9347  -3.9225
    -3.2977  -3.2382  -3.1916

     occupation numbers 
     1.0000   1.0000   1.0000   1.0000   1.0000   1.0000   1.0000   1.0000
     1.0000   1.0000   1.0000   1.0000   1.0000   1.0000   1.0000   1.0000
     1.0000   1.0000   1.0000   1.0000   1.0000   1.0000   1.0000   1.0000
     1.0000   1.0000   1.0000   1.0000   1.0000   1.0000   1.0000   1.0000
     1.0000   1.0000   1.0000   1.0000   1.0000   1.0000   1.0000   1.0000
     1.0000   1.0000   1.0000   1.0000   1.0000   1.0000   1.0000   1.0000
     1.0000   1.0000   1.0000   1.0000   1.0000   1.0000   1.0000   1.0000
     1.0000   1.0000   1.0000   1.0000   1.0000   1.0000   1.0000   1.0000
     0.0012   0.0000   0.0000

          k = 0.0000 0.2887 0.0000 ( 52560 PWs)   bands (ev):

   -74.9049 -74.9045 -74.9045 -74.9044 -74.9043 -74.9043 -71.7145 -71.7145
   -46.6988 -46.6983 -46.6975 -46.6967 -46.6961 -46.6960 -46.6824 -46.6809
   -46.6797 -46.6795 -46.6783 -46.6779 -46.6726 -46.6719 -46.6718 -46.6699
   -46.6699 -46.6696 -43.4581 -43.4568 -43.4561 -43.4558 -43.4543 -43.4540
    -7.5361  -5.7847  -5.7631  -5.1917  -5.0866  -4.9636  -4.8716  -4.8031
    -4.6873  -4.6295  -4.5799  -4.5514  -4.5474  -4.5057  -4.4431  -4.4316
    -4.4079  -4.3856  -4.3581  -4.3184  -4.3051  -4.2716  -4.2323  -4.1911
    -4.0752  -4.0504  -4.0321  -3.9954  -3.9679  -3.9509  -3.9300  -3.9059
    -3.6323  -3.2866  -3.2694

     occupation numbers 
     1.0000   1.0000   1.0000   1.0000   1.0000   1.0000   1.0000   1.0000
     1.0000   1.0000   1.0000   1.0000   1.0000   1.0000   1.0000   1.0000
     1.0000   1.0000   1.0000   1.0000   1.0000   1.0000   1.0000   1.0000
     1.0000   1.0000   1.0000   1.0000   1.0000   1.0000   1.0000   1.0000
     1.0000   1.0000   1.0000   1.0000   1.0000   1.0000   1.0000   1.0000
     1.0000   1.0000   1.0000   1.0000   1.0000   1.0000   1.0000   1.0000
     1.0000   1.0000   1.0000   1.0000   1.0000   1.0000   1.0000   1.0000
     1.0000   1.0000   1.0000   1.0000   1.0000   1.0000   1.0000   1.0000
     1.0000   0.0005   0.0001

          k = 0.0000 0.4330 0.0000 ( 52578 PWs)   bands (ev):

   -74.9048 -74.9046 -74.9045 -74.9044 -74.9044 -74.9043 -71.7145 -71.7145
   -46.6988 -46.6982 -46.6974 -46.6966 -46.6963 -46.6961 -46.6818 -46.6807
   -46.6801 -46.6800 -46.6782 -46.6778 -46.6725 -46.6721 -46.6721 -46.6698
   -46.6698 -46.6696 -43.4579 -43.4571 -43.4561 -43.4557 -43.4544 -43.4539
    -7.2364  -6.2155  -5.5157  -5.2945  -5.1834  -5.0238  -4.8906  -4.8208
    -4.7952  -4.6714  -4.6262  -4.5580  -4.5436  -4.4822  -4.4502  -4.4465
    -4.4344  -4.3905  -4.3352  -4.3003  -4.2617  -4.2030  -4.1464  -4.1374
    -4.1005  -4.0620  -4.0532  -3.9812  -3.9290  -3.9196  -3.8971  -3.8812
    -3.8712  -3.5292  -3.4237

     occupation numbers 
     1.0000   1.0000   1.0000   1.0000   1.0000   1.0000   1.0000   1.0000
     1.0000   1.0000   1.0000   1.0000   1.0000   1.0000   1.0000   1.0000
     1.0000   1.0000   1.0000   1.0000   1.0000   1.0000   1.0000   1.0000
     1.0000   1.0000   1.0000   1.0000   1.0000   1.0000   1.0000   1.0000
     1.0000   1.0000   1.0000   1.0000   1.0000   1.0000   1.0000   1.0000
     1.0000   1.0000   1.0000   1.0000   1.0000   1.0000   1.0000   1.0000
     1.0000   1.0000   1.0000   1.0000   1.0000   1.0000   1.0000   1.0000
     1.0000   1.0000   1.0000   1.0000   1.0000   1.0000   1.0000   1.0000
     1.0000   0.9623   0.3389

          k = 0.0000-0.5774 0.0000 ( 52578 PWs)   bands (ev):

   -74.9047 -74.9046 -74.9044 -74.9044 -74.9044 -74.9043 -71.7145 -71.7145
   -46.6989 -46.6982 -46.6973 -46.6965 -46.6963 -46.6962 -46.6813 -46.6806
   -46.6805 -46.6802 -46.6781 -46.6777 -46.6725 -46.6722 -46.6721 -46.6698
   -46.6698 -46.6696 -43.4578 -43.4573 -43.4562 -43.4557 -43.4545 -43.4539
    -6.9829  -6.5321  -5.3412  -5.2329  -5.2245  -5.1192  -5.0466  -4.8250
    -4.8199  -4.6561  -4.6531  -4.5610  -4.4997  -4.4990  -4.4863  -4.4555
    -4.4327  -4.3883  -4.3375  -4.2913  -4.1804  -4.1638  -4.1240  -4.1083
    -4.0913  -4.0784  -4.0576  -4.0028  -3.9750  -3.9498  -3.8800  -3.8602
    -3.7700  -3.7060  -3.5460

     occupation numbers 
     1.0000   1.0000   1.0000   1.0000   1.0000   1.0000   1.0000   1.0000
     1.0000   1.0000   1.0000   1.0000   1.0000   1.0000   1.0000   1.0000
     1.0000   1.0000   1.0000   1.0000   1.0000   1.0000   1.0000   1.0000
     1.0000   1.0000   1.0000   1.0000   1.0000   1.0000   1.0000   1.0000
     1.0000   1.0000   1.0000   1.0000   1.0000   1.0000   1.0000   1.0000
     1.0000   1.0000   1.0000   1.0000   1.0000   1.0000   1.0000   1.0000
     1.0000   1.0000   1.0000   1.0000   1.0000   1.0000   1.0000   1.0000
     1.0000   1.0000   1.0000   1.0000   1.0000   1.0000   1.0000   1.0000
     1.0000   1.0000   0.9833

          k = 0.1250 0.2165 0.0000 ( 52635 PWs)   bands (ev):

   -74.9049 -74.9045 -74.9045 -74.9044 -74.9043 -74.9043 -71.7145 -71.7145
   -46.6988 -46.6983 -46.6976 -46.6968 -46.6961 -46.6960 -46.6825 -46.6809
   -46.6797 -46.6793 -46.6784 -46.6779 -46.6726 -46.6718 -46.6718 -46.6700
   -46.6700 -46.6696 -43.4582 -43.4568 -43.4561 -43.4558 -43.4543 -43.4540
    -7.5996  -5.8420  -5.6375  -5.2207  -5.0009  -4.9322  -4.9009  -4.8067
    -4.6968  -4.6110  -4.5848  -4.5284  -4.5173  -4.4805  -4.4642  -4.4324
    -4.4018  -4.3819  -4.3530  -4.3348  -4.2999  -4.2843  -4.2673  -4.2142
    -4.0659  -4.0456  -4.0179  -4.0068  -3.9809  -3.9761  -3.9213  -3.9095
    -3.5083  -3.3889  -3.2176

     occupation numbers 
     1.0000   1.0000   1.0000   1.0000   1.0000   1.0000   1.0000   1.0000
     1.0000   1.0000   1.0000   1.0000   1.0000   1.0000   1.0000   1.0000
     1.0000   1.0000   1.0000   1.0000   1.0000   1.0000   1.0000   1.0000
     1.0000   1.0000   1.0000   1.0000   1.0000   1.0000   1.0000   1.0000
     1.0000   1.0000   1.0000   1.0000   1.0000   1.0000   1.0000   1.0000
     1.0000   1.0000   1.0000   1.0000   1.0000   1.0000   1.0000   1.0000
     1.0000   1.0000   1.0000   1.0000   1.0000   1.0000   1.0000   1.0000
     1.0000   1.0000   1.0000   1.0000   1.0000   1.0000   1.0000   1.0000
     0.9106   0.1277   0.0000

          k = 0.1250 0.3608 0.0000 ( 52572 PWs)   bands (ev):

   -74.9048 -74.9045 -74.9045 -74.9044 -74.9043 -74.9043 -71.7145 -71.7145
   -46.6989 -46.6981 -46.6975 -46.6966 -46.6962 -46.6961 -46.6820 -46.6808
   -46.6801 -46.6795 -46.6786 -46.6776 -46.6726 -46.6720 -46.6720 -46.6699
   -46.6698 -46.6696 -43.4580 -43.4570 -43.4562 -43.4557 -43.4545 -43.4539
    -7.3507  -6.0038  -5.6215  -5.4098  -5.0536  -4.9801  -4.9123  -4.8509
    -4.7394  -4.6072  -4.5820  -4.5581  -4.5468  -4.4798  -4.4744  -4.4241
    -4.4151  -4.3722  -4.3242  -4.3081  -4.2965  -4.2358  -4.2063  -4.1928
    -4.1076  -4.0458  -4.0419  -3.9821  -3.9728  -3.9276  -3.9065  -3.8999
    -3.7857  -3.5957  -3.3900

     occupation numbers 
     1.0000   1.0000   1.0000   1.0000   1.0000   1.0000   1.0000   1.0000
     1.0000   1.0000   1.0000   1.0000   1.0000   1.0000   1.0000   1.0000
     1.0000   1.0000   1.0000   1.0000   1.0000   1.0000   1.0000   1.0000
     1.0000   1.0000   1.0000   1.0000   1.0000   1.0000   1.0000   1.0000
     1.0000   1.0000   1.0000   1.0000   1.0000   1.0000   1.0000   1.0000
     1.0000   1.0000   1.0000   1.0000   1.0000   1.0000   1.0000   1.0000
     1.0000   1.0000   1.0000   1.0000   1.0000   1.0000   1.0000   1.0000
     1.0000   1.0000   1.0000   1.0000   1.0000   1.0000   1.0000   1.0000
     1.0000   0.9992   0.1323

          k = 0.1250 0.5052 0.0000 ( 52542 PWs)   bands (ev):

   -74.9047 -74.9046 -74.9045 -74.9044 -74.9044 -74.9043 -71.7145 -71.7145
   -46.6989 -46.6981 -46.6974 -46.6965 -46.6963 -46.6962 -46.6815 -46.6806
   -46.6805 -46.6799 -46.6786 -46.6774 -46.6726 -46.6722 -46.6721 -46.6698
   -46.6698 -46.6696 -43.4578 -43.4572 -43.4563 -43.4555 -43.4546 -43.4538
    -7.0283  -6.4183  -5.5217  -5.3350  -5.1284  -5.0271  -4.9974  -4.8344
    -4.8092  -4.6826  -4.5999  -4.5496  -4.5275  -4.4838  -4.4649  -4.4608
    -4.4369  -4.3507  -4.3314  -4.2897  -4.2168  -4.1841  -4.1468  -4.1345
    -4.1065  -4.0701  -4.0548  -3.9818  -3.9678  -3.9386  -3.9219  -3.8817
    -3.8098  -3.7757  -3.6349

     occupation numbers 
     1.0000   1.0000   1.0000   1.0000   1.0000   1.0000   1.0000   1.0000
     1.0000   1.0000   1.0000   1.0000   1.0000   1.0000   1.0000   1.0000
     1.0000   1.0000   1.0000   1.0000   1.0000   1.0000   1.0000   1.0000
     1.0000   1.0000   1.0000   1.0000   1.0000   1.0000   1.0000   1.0000
     1.0000   1.0000   1.0000   1.0000   1.0000   1.0000   1.0000   1.0000
     1.0000   1.0000   1.0000   1.0000   1.0000   1.0000   1.0000   1.0000
     1.0000   1.0000   1.0000   1.0000   1.0000   1.0000   1.0000   1.0000
     1.0000   1.0000   1.0000   1.0000   1.0000   1.0000   1.0000   1.0000
     1.0000   1.0000   1.0000

          k = 0.2500 0.4330 0.0000 ( 52526 PWs)   bands (ev):

   -74.9048 -74.9046 -74.9045 -74.9044 -74.9044 -74.9043 -71.7145 -71.7145
   -46.6990 -46.6979 -46.6975 -46.6965 -46.6963 -46.6962 -46.6815 -46.6806
   -46.6805 -46.6795 -46.6791 -46.6773 -46.6726 -46.6722 -46.6721 -46.6698
   -46.6698 -46.6696 -43.4578 -43.4572 -43.4563 -43.4554 -43.4547 -43.4538
    -7.0633  -6.2902  -5.6728  -5.3871  -5.0901  -5.0047  -4.9176  -4.8853
    -4.7993  -4.6072  -4.5707  -4.5588  -4.5449  -4.4910  -4.4763  -4.4275
    -4.4058  -4.3469  -4.3032  -4.2696  -4.2520  -4.2306  -4.2120  -4.1704
    -4.1235  -4.0523  -4.0503  -3.9911  -3.9792  -3.9334  -3.9127  -3.9033
    -3.8458  -3.8328  -3.5290

     occupation numbers 
     1.0000   1.0000   1.0000   1.0000   1.0000   1.0000   1.0000   1.0000
     1.0000   1.0000   1.0000   1.0000   1.0000   1.0000   1.0000   1.0000
     1.0000   1.0000   1.0000   1.0000   1.0000   1.0000   1.0000   1.0000
     1.0000   1.0000   1.0000   1.0000   1.0000   1.0000   1.0000   1.0000
     1.0000   1.0000   1.0000   1.0000   1.0000   1.0000   1.0000   1.0000
     1.0000   1.0000   1.0000   1.0000   1.0000   1.0000   1.0000   1.0000
     1.0000   1.0000   1.0000   1.0000   1.0000   1.0000   1.0000   1.0000
     1.0000   1.0000   1.0000   1.0000   1.0000   1.0000   1.0000   1.0000
     1.0000   1.0000   0.9620

          k = 0.2500 0.5774 0.0000 ( 52520 PWs)   bands (ev):

   -74.9047 -74.9046 -74.9045 -74.9044 -74.9044 -74.9043 -71.7145 -71.7145
   -46.6990 -46.6977 -46.6975 -46.6965 -46.6963 -46.6963 -46.6812 -46.6809
   -46.6800 -46.6798 -46.6793 -46.6771 -46.6726 -46.6722 -46.6722 -46.6697
   -46.6697 -46.6696 -43.4576 -43.4574 -43.4564 -43.4552 -43.4548 -43.4538
    -6.7991  -6.5509  -5.7789  -5.2023  -5.1604  -5.0365  -4.9184  -4.8467
    -4.8460  -4.6604  -4.5709  -4.5600  -4.5288  -4.5053  -4.4900  -4.4190
    -4.3981  -4.3319  -4.2835  -4.2801  -4.2417  -4.2102  -4.1802  -4.1474
    -4.1243  -4.0646  -4.0628  -3.9936  -3.9812  -3.9645  -3.9494  -3.9308
    -3.9037  -3.7420  -3.6912

     occupation numbers 
     1.0000   1.0000   1.0000   1.0000   1.0000   1.0000   1.0000   1.0000
     1.0000   1.0000   1.0000   1.0000   1.0000   1.0000   1.0000   1.0000
     1.0000   1.0000   1.0000   1.0000   1.0000   1.0000   1.0000   1.0000
     1.0000   1.0000   1.0000   1.0000   1.0000   1.0000   1.0000   1.0000
     1.0000   1.0000   1.0000   1.0000   1.0000   1.0000   1.0000   1.0000
     1.0000   1.0000   1.0000   1.0000   1.0000   1.0000   1.0000   1.0000
     1.0000   1.0000   1.0000   1.0000   1.0000   1.0000   1.0000   1.0000
     1.0000   1.0000   1.0000   1.0000   1.0000   1.0000   1.0000   1.0000
     1.0000   1.0000   1.0000

     the Fermi energy is    -3.4436 ev

!    total energy              =   -1420.80361624 Ry
     estimated scf accuracy    <          9.1E-14 Ry
     smearing contrib. (-TS)   =      -0.00066948 Ry
     internal energy E=F+TS    =   -1420.80294677 Ry

     The total energy is F=E-TS. E is the sum of the following terms:
     one-electron contribution =   -4423.89322976 Ry
     hartree contribution      =    2188.67595367 Ry
     xc contribution           =    -208.56939079 Ry
     ewald contribution        =    1022.98372011 Ry

     total magnetization       =   -20.14 Bohr mag/cell
     absolute magnetization    =    33.79 Bohr mag/cell

     convergence has been achieved in  26 iterations

     Writing all to output data dir ./cri3_90Ry_k8x8x1.save/
 
     init_run     :     14.21s CPU     14.90s WALL (       1 calls)
     electrons    :   1347.11s CPU   1376.56s WALL (       1 calls)

     Called by init_run:
     wfcinit      :     13.14s CPU     13.74s WALL (       1 calls)
     wfcinit:atom :      0.15s CPU      0.25s WALL (      20 calls)
     wfcinit:wfcr :     12.38s CPU     12.80s WALL (      20 calls)
     potinit      :      0.30s CPU      0.31s WALL (       1 calls)
     hinit0       :      0.50s CPU      0.53s WALL (       1 calls)

     Called by electrons:
     c_bands      :   1189.06s CPU   1216.00s WALL (      26 calls)
     sum_band     :    153.96s CPU    156.20s WALL (      26 calls)
     v_of_rho     :      0.93s CPU      0.95s WALL (      27 calls)
     v_h          :      0.28s CPU      0.28s WALL (      27 calls)
     v_xc         :      0.65s CPU      0.66s WALL (      27 calls)
     mix_rho      :      2.84s CPU      2.90s WALL (      26 calls)

     Called by c_bands:
     init_us_2    :      9.69s CPU      9.77s WALL (    1060 calls)
     init_us_2:cp :      9.68s CPU      9.76s WALL (    1060 calls)
     cegterg      :   1139.15s CPU   1165.76s WALL (     526 calls)

     Called by sum_band:
     sum_band:wei :      0.05s CPU      0.05s WALL (      26 calls)
     sum_band:loo :    152.79s CPU    155.00s WALL (      26 calls)
     sum_band:buf :      2.29s CPU      2.30s WALL (     520 calls)
     sum_band:ini :      4.74s CPU      4.78s WALL (     520 calls)

     Called by *egterg:
     cdiaghg      :     36.82s CPU     42.24s WALL (    5947 calls)
     cegterg:over :     72.54s CPU     73.45s WALL (    5423 calls)
     cegterg:upda :     95.72s CPU     96.61s WALL (    5423 calls)
     cegterg:last :     89.51s CPU     90.14s WALL (    1520 calls)
     cdiaghg:chol :      2.67s CPU      2.75s WALL (    5947 calls)
     cdiaghg:inve :      1.87s CPU      1.98s WALL (    5947 calls)
     cdiaghg:para :      3.33s CPU      3.45s WALL (   11894 calls)
     h_psi        :    831.74s CPU    850.55s WALL (    5969 calls)
     g_psi        :      3.66s CPU      3.70s WALL (    5423 calls)

     Called by h_psi:
     h_psi:calbec :     48.92s CPU     49.56s WALL (    5969 calls)
     vloc_psi     :    721.71s CPU    739.29s WALL (    5969 calls)
     add_vuspsi   :     53.33s CPU     53.68s WALL (    5969 calls)

     General routines
     calbec       :     48.88s CPU     49.53s WALL (    5969 calls)
     fft          :      0.76s CPU      0.81s WALL (     133 calls)
     ffts         :      0.27s CPU      0.28s WALL (      52 calls)
     fftw         :    629.01s CPU    643.96s WALL (  270682 calls)
 
     Parallel routines
 
     PWSCF        :  22m42.32s CPU  23m19.45s WALL

 
   This run was terminated on:  10:43:15  16Jan2024            

=------------------------------------------------------------------------------=
   JOB DONE.
=------------------------------------------------------------------------------=
