
     Program PWSCF v.7.0 starts on 10Jan2024 at 14:52: 8 

     This program is part of the open-source Quantum ESPRESSO suite
     for quantum simulation of materials; please cite
         "P. Giannozzi et al., J. Phys.:Condens. Matter 21 395502 (2009);
         "P. Giannozzi et al., J. Phys.:Condens. Matter 29 465901 (2017);
         "P. Giannozzi et al., J. Chem. Phys. 152 154105 (2020);
          URL http://www.quantum-espresso.org", 
     in publications or presentations arising from this work. More details at
     http://www.quantum-espresso.org/quote

     Parallel version (MPI), running on    24 processors

     MPI processes distributed on     1 nodes
     R & G space division:  proc/nbgrp/npool/nimage =      24
     114206 MiB available memory on the printing compute node when the environment starts
 
     Reading input from cri3-exp-nosoc_150Ry.scf.in

     Current dimensions of program PWSCF are:
     Max number of different atomic species (ntypx) = 10
     Max number of k-points (npk) =  40000
     Max angular momentum in pseudopotentials (lmaxx) =  4

     Subspace diagonalization in iterative solution of the eigenvalue problem:
     one sub-group per band group will be used
     scalapack distributed-memory algorithm (size of sub-group:  4*  4 procs)

 
     Parallelization info
     --------------------
     sticks:   dense  smooth     PW     G-vecs:    dense   smooth      PW
     Min         290     290     75                37712    37712    5065
     Max         291     291     76                37725    37725    5074
     Sum        6961    6961   1813               905199   905199  121635
 
     Using Slab Decomposition
 


     bravais-lattice index     =            4
     lattice parameter (alat)  =      12.9767  a.u.
     unit-cell volume          =    3645.8815 (a.u.)^3
     number of atoms/cell      =            8
     number of atomic types    =            2
     number of electrons       =        70.00
     number of Kohn-Sham states=           42
     kinetic-energy cutoff     =     150.0000  Ry
     charge density cutoff     =     600.0000  Ry
     scf convergence threshold =      1.0E-13
     mixing beta               =       0.7000
     number of iterations used =            8  plain     mixing
     Exchange-correlation= PZ
                           (   1   1   0   0   0   0   0)

     celldm(1)=  12.976749  celldm(2)=   0.000000  celldm(3)=   1.926523
     celldm(4)=   0.000000  celldm(5)=   0.000000  celldm(6)=   0.000000

     crystal axes: (cart. coord. in units of alat)
               a(1) = (   1.000000   0.000000   0.000000 )  
               a(2) = (  -0.500000   0.866025   0.000000 )  
               a(3) = (   0.000000   0.000000   1.926523 )  

     reciprocal axes: (cart. coord. in units 2 pi/alat)
               b(1) = (  1.000000  0.577350  0.000000 )  
               b(2) = (  0.000000  1.154701  0.000000 )  
               b(3) = (  0.000000  0.000000  0.519070 )  


     PseudoPot. # 1 for Cr read from file:
     ./Cr_Alejandro.upf
     MD5 check sum: 19f8874af457815d5c8e16c7b8c57f71
     Pseudo is Norm-conserving + core correction, Zval = 14.0
     Generated using ONCVPSP code by D. R. Hamann
     Using radial grid of 1600 points,  6 beta functions with: 
                l(1) =   0
                l(2) =   0
                l(3) =   1
                l(4) =   1
                l(5) =   2
                l(6) =   2

     PseudoPot. # 2 for I  read from file:
     ./I_Alejandro.upf
     MD5 check sum: d0d4d45a39a9ecd37d4d9deb6bd296a3
     Pseudo is Norm-conserving + core correction, Zval =  7.0
     Generated using ONCVPSP code by D. R. Hamann
     Using radial grid of 1196 points,  6 beta functions with: 
                l(1) =   0
                l(2) =   0
                l(3) =   1
                l(4) =   1
                l(5) =   2
                l(6) =   2

     atomic species   valence    mass     pseudopotential
        Cr            14.00    51.99000     Cr( 1.00)
        I              7.00   126.90000     I ( 1.00)

     Starting magnetic structure 
     atomic species   magnetization
        Cr           1.000
        I            0.000

      6 Sym. Ops. (no inversion) found ( 3 have fractional translation)


                                    s                        frac. trans.

      isym =  1     identity                                     

 cryst.   s( 1) = (     1          0          0      )
                  (     0          1          0      )
                  (     0          0          1      )

 cart.    s( 1) = (  1.0000000  0.0000000  0.0000000 )
                  (  0.0000000  1.0000000  0.0000000 )
                  (  0.0000000  0.0000000  1.0000000 )


      isym =  2     120 deg rotation - cryst. axis [0,0,1]       

 cryst.   s( 2) = (     0          1          0      )
                  (    -1         -1          0      )
                  (     0          0          1      )

 cart.    s( 2) = ( -0.5000000 -0.8660254  0.0000000 )
                  (  0.8660254 -0.5000000  0.0000000 )
                  (  0.0000000  0.0000000  1.0000000 )


      isym =  3     120 deg rotation - cryst. axis [0,0,-1]      

 cryst.   s( 3) = (    -1         -1          0      )
                  (     1          0          0      )
                  (     0          0          1      )

 cart.    s( 3) = ( -0.5000000  0.8660254  0.0000000 )
                  ( -0.8660254 -0.5000000  0.0000000 )
                  (  0.0000000  0.0000000  1.0000000 )


      isym =  4     inv. 180 deg rotation - cart. axis [0,1,0]   

 cryst.   s( 4) = (     1          0          0      )    f =( -0.3333333 )
                  (    -1         -1          0      )       (  0.3333333 )
                  (     0          0          1      )       (  0.0000000 )

 cart.    s( 4) = (  1.0000000  0.0000000  0.0000000 )    f =( -0.5000000 )
                  (  0.0000000 -1.0000000  0.0000000 )       (  0.2886751 )
                  (  0.0000000  0.0000000  1.0000000 )       (  0.0000000 )


      isym =  5     inv. 180 deg rotation - cryst. axis [1,-1,0] 

 cryst.   s( 5) = (     0          1          0      )    f =( -0.3333333 )
                  (     1          0          0      )       (  0.3333333 )
                  (     0          0          1      )       (  0.0000000 )

 cart.    s( 5) = ( -0.5000000  0.8660254  0.0000000 )    f =( -0.5000000 )
                  (  0.8660254  0.5000000  0.0000000 )       (  0.2886751 )
                  (  0.0000000  0.0000000  1.0000000 )       (  0.0000000 )


      isym =  6     inv. 180 deg rotation - cryst. axis [2,1,0]  

 cryst.   s( 6) = (    -1         -1          0      )    f =( -0.3333333 )
                  (     0          1          0      )       (  0.3333333 )
                  (     0          0          1      )       (  0.0000000 )

 cart.    s( 6) = ( -0.5000000 -0.8660254  0.0000000 )    f =( -0.5000000 )
                  ( -0.8660254  0.5000000  0.0000000 )       (  0.2886751 )
                  (  0.0000000  0.0000000  1.0000000 )       (  0.0000000 )


     point group C_3v (3m)  
     there are  3 classes
     the character table:

       E     2C3   3s_v 
A_1    1.00  1.00  1.00
A_2    1.00  1.00 -1.00
E      2.00 -1.00  0.00

     the symmetry operations in each class and the name of the first element:

     E        1
          identity                                               
     2C3      2    3
          120 deg rotation - cryst. axis [0,0,1]                 
     3s_v     4    6    5
          inv. 180 deg rotation - cart. axis [0,1,0]             

   Cartesian axes

     site n.     atom                  positions (alat units)
         1           Cr  tau(   1) = (   0.0000000   0.0000000   0.4846161  )
         2           Cr  tau(   2) = (   0.0000000   0.5773503   0.4846161  )
         3           I   tau(   3) = (  -0.1753225   0.8510331   0.7123856  )
         4           I   tau(   4) = (   0.3246775   0.5923426   0.7123856  )
         5           I   tau(   5) = (  -0.1493550   0.2886751   0.7123856  )
         6           I   tau(   6) = (  -0.3246775   0.5923426   0.2568467  )
         7           I   tau(   7) = (   0.1753225   0.8510331   0.2568467  )
         8           I   tau(   8) = (   0.1493550   0.2886751   0.2568467  )

   Crystallographic axes

     site n.     atom                  positions (cryst. coord.)
         1           Cr  tau(   1) = (  0.0000000  0.0000000  0.2515496  )
         2           Cr  tau(   2) = (  0.3333333  0.6666667  0.2515496  )
         3           I   tau(   3) = (  0.3160217  0.9826883  0.3697779  )
         4           I   tau(   4) = (  0.6666667  0.6839783  0.3697779  )
         5           I   tau(   5) = (  0.0173117  0.3333333  0.3697779  )
         6           I   tau(   6) = (  0.0173117  0.6839783  0.1333214  )
         7           I   tau(   7) = (  0.6666667  0.9826883  0.1333214  )
         8           I   tau(   8) = (  0.3160217  0.3333333  0.1333214  )

     number of k points=    10  Gaussian smearing, width (Ry)=  0.0050
                       cart. coord. in units 2pi/alat
        k(    1) = (   0.0000000   0.0000000   0.0000000), wk =   0.0156250
        k(    2) = (   0.0000000   0.1443376   0.0000000), wk =   0.0937500
        k(    3) = (   0.0000000   0.2886751   0.0000000), wk =   0.0937500
        k(    4) = (   0.0000000   0.4330127   0.0000000), wk =   0.0937500
        k(    5) = (   0.0000000  -0.5773503   0.0000000), wk =   0.0468750
        k(    6) = (   0.1250000   0.2165064   0.0000000), wk =   0.0937500
        k(    7) = (   0.1250000   0.3608439   0.0000000), wk =   0.1875000
        k(    8) = (   0.1250000   0.5051815   0.0000000), wk =   0.1875000
        k(    9) = (   0.2500000   0.4330127   0.0000000), wk =   0.0937500
        k(   10) = (   0.2500000   0.5773503   0.0000000), wk =   0.0937500

                       cryst. coord.
        k(    1) = (   0.0000000   0.0000000   0.0000000), wk =   0.0156250
        k(    2) = (   0.0000000   0.1250000   0.0000000), wk =   0.0937500
        k(    3) = (   0.0000000   0.2500000   0.0000000), wk =   0.0937500
        k(    4) = (   0.0000000   0.3750000   0.0000000), wk =   0.0937500
        k(    5) = (   0.0000000  -0.5000000   0.0000000), wk =   0.0468750
        k(    6) = (   0.1250000   0.1250000   0.0000000), wk =   0.0937500
        k(    7) = (   0.1250000   0.2500000   0.0000000), wk =   0.1875000
        k(    8) = (   0.1250000   0.3750000   0.0000000), wk =   0.1875000
        k(    9) = (   0.2500000   0.2500000   0.0000000), wk =   0.0937500
        k(   10) = (   0.2500000   0.3750000   0.0000000), wk =   0.0937500

     Dense  grid:   905199 G-vectors     FFT dimensions: ( 108, 108, 200)

     Dynamical RAM for                 wfc:       3.02 MB

     Dynamical RAM for     wfc (w. buffer):      63.42 MB

     Dynamical RAM for           str. fact:       1.15 MB

     Dynamical RAM for           local pot:       0.00 MB

     Dynamical RAM for          nlocal pot:      10.35 MB

     Dynamical RAM for                qrad:       3.93 MB

     Dynamical RAM for          rho,v,vnew:       8.26 MB

     Dynamical RAM for               rhoin:       2.75 MB

     Dynamical RAM for            rho*nmix:      18.42 MB

     Dynamical RAM for           G-vectors:       2.45 MB

     Dynamical RAM for          h,s,v(r/c):       0.02 MB

     Dynamical RAM for          <psi|beta>:       0.09 MB

     Dynamical RAM for                 psi:       6.04 MB

     Dynamical RAM for                hpsi:       6.04 MB

     Dynamical RAM for      wfcinit/wfcrot:       6.37 MB

     Estimated static dynamical RAM per process >      98.84 MB

     Estimated max dynamical RAM per process >     129.45 MB

     Estimated total dynamical RAM >       3.03 GB
 ----2D----2D----2D----2D----2D----2D----2D----2D----2D----2D----2D----2D
  The code is running with the 2D cutoff
  Please refer to:
  Sohier, T., Calandra, M., & Mauri, F. (2017), 
  Density functional perturbation theory for gated two-dimensional heterostructu
 res:
  Theoretical developments and application to flexural phonons in graphene.
  Physical Review B, 96(7), 75448. https://doi.org/10.1103/PhysRevB.96.075448
 ----2D----2D----2D----2D----2D----2D----2D----2D----2D----2D----2D----2D
     Generating pointlists ...
     new r_m :   0.1637 (alat units)  2.1245 (a.u.) for type    1
     new r_m :   0.1637 (alat units)  2.1245 (a.u.) for type    2

     Initial potential from superposition of free atoms

     starting charge      69.9974, renormalised to      70.0000

     negative rho (up, down):  6.573E-08 1.269E-08
     Starting wfcs are   44 randomized atomic wfcs

     total cpu time spent up to now is        6.4 secs

     Self-consistent Calculation

     iteration #  1     ecut=   150.00 Ry     beta= 0.70
     Davidson diagonalization with overlap

---- Real-time Memory Report at c_bands before calling an iterative solver
           243 MiB given to the printing process from OS
             0 MiB allocation reported by mallinfo(arena+hblkhd)
        111374 MiB available memory on the node where the printing process lives
------------------
     c_bands:  5 eigenvalues not converged
     c_bands:  2 eigenvalues not converged
     c_bands:  5 eigenvalues not converged
     c_bands:  4 eigenvalues not converged
     c_bands:  4 eigenvalues not converged
     ethr =  5.00E-06,  avg # of iterations = 19.4

     negative rho (up, down):  1.596E-08 1.029E-09

     total cpu time spent up to now is       58.0 secs

     total energy              =    -511.37690081 Ry
     estimated scf accuracy    <       4.55715307 Ry

     total magnetization       =     6.00 Bohr mag/cell
     absolute magnetization    =    10.88 Bohr mag/cell

     iteration #  2     ecut=   150.00 Ry     beta= 0.70
     Davidson diagonalization with overlap

---- Real-time Memory Report at c_bands before calling an iterative solver
           272 MiB given to the printing process from OS
             0 MiB allocation reported by mallinfo(arena+hblkhd)
        112816 MiB available memory on the node where the printing process lives
------------------
     ethr =  6.51E-03,  avg # of iterations =  5.9

     total cpu time spent up to now is       74.8 secs

     total energy              =    -511.50284413 Ry
     estimated scf accuracy    <       0.97326609 Ry

     total magnetization       =     6.00 Bohr mag/cell
     absolute magnetization    =    10.61 Bohr mag/cell

     iteration #  3     ecut=   150.00 Ry     beta= 0.70
     Davidson diagonalization with overlap

---- Real-time Memory Report at c_bands before calling an iterative solver
           276 MiB given to the printing process from OS
             0 MiB allocation reported by mallinfo(arena+hblkhd)
        112679 MiB available memory on the node where the printing process lives
------------------
     ethr =  1.39E-03,  avg # of iterations =  7.5

     total cpu time spent up to now is       95.4 secs

     total energy              =    -511.47278973 Ry
     estimated scf accuracy    <       6.05225004 Ry

     total magnetization       =     6.00 Bohr mag/cell
     absolute magnetization    =     6.39 Bohr mag/cell

     iteration #  4     ecut=   150.00 Ry     beta= 0.70
     Davidson diagonalization with overlap

---- Real-time Memory Report at c_bands before calling an iterative solver
           279 MiB given to the printing process from OS
             0 MiB allocation reported by mallinfo(arena+hblkhd)
        112545 MiB available memory on the node where the printing process lives
------------------
     ethr =  1.39E-03,  avg # of iterations =  7.7

     total cpu time spent up to now is      116.6 secs

     total energy              =    -512.05696783 Ry
     estimated scf accuracy    <       0.10375465 Ry

     total magnetization       =     6.00 Bohr mag/cell
     absolute magnetization    =     7.54 Bohr mag/cell

     iteration #  5     ecut=   150.00 Ry     beta= 0.70
     Davidson diagonalization with overlap

---- Real-time Memory Report at c_bands before calling an iterative solver
           282 MiB given to the printing process from OS
             0 MiB allocation reported by mallinfo(arena+hblkhd)
        112409 MiB available memory on the node where the printing process lives
------------------
     ethr =  1.48E-04,  avg # of iterations =  7.0

     total cpu time spent up to now is      135.2 secs

     total energy              =    -512.08650358 Ry
     estimated scf accuracy    <       0.00444458 Ry

     total magnetization       =     6.00 Bohr mag/cell
     absolute magnetization    =     7.50 Bohr mag/cell

     iteration #  6     ecut=   150.00 Ry     beta= 0.70
     Davidson diagonalization with overlap

---- Real-time Memory Report at c_bands before calling an iterative solver
           284 MiB given to the printing process from OS
             0 MiB allocation reported by mallinfo(arena+hblkhd)
        112349 MiB available memory on the node where the printing process lives
------------------
     ethr =  6.35E-06,  avg # of iterations =  4.0

     total cpu time spent up to now is      150.1 secs

     total energy              =    -512.08829557 Ry
     estimated scf accuracy    <       0.00128999 Ry

     total magnetization       =     6.00 Bohr mag/cell
     absolute magnetization    =     7.34 Bohr mag/cell

     iteration #  7     ecut=   150.00 Ry     beta= 0.70
     Davidson diagonalization with overlap

---- Real-time Memory Report at c_bands before calling an iterative solver
           288 MiB given to the printing process from OS
             0 MiB allocation reported by mallinfo(arena+hblkhd)
        112291 MiB available memory on the node where the printing process lives
------------------
     ethr =  1.84E-06,  avg # of iterations =  2.9

     total cpu time spent up to now is      165.3 secs

     total energy              =    -512.08878443 Ry
     estimated scf accuracy    <       0.00011900 Ry

     total magnetization       =     6.00 Bohr mag/cell
     absolute magnetization    =     7.16 Bohr mag/cell

     iteration #  8     ecut=   150.00 Ry     beta= 0.70
     Davidson diagonalization with overlap

---- Real-time Memory Report at c_bands before calling an iterative solver
           290 MiB given to the printing process from OS
             0 MiB allocation reported by mallinfo(arena+hblkhd)
        112231 MiB available memory on the node where the printing process lives
------------------
     ethr =  1.70E-07,  avg # of iterations =  4.0

     total cpu time spent up to now is      182.1 secs

     total energy              =    -512.08880655 Ry
     estimated scf accuracy    <       0.00001845 Ry

     total magnetization       =     6.00 Bohr mag/cell
     absolute magnetization    =     7.13 Bohr mag/cell

     iteration #  9     ecut=   150.00 Ry     beta= 0.70
     Davidson diagonalization with overlap

---- Real-time Memory Report at c_bands before calling an iterative solver
           293 MiB given to the printing process from OS
             0 MiB allocation reported by mallinfo(arena+hblkhd)
        112173 MiB available memory on the node where the printing process lives
------------------
     ethr =  2.64E-08,  avg # of iterations =  3.6

     total cpu time spent up to now is      199.3 secs

     total energy              =    -512.08880768 Ry
     estimated scf accuracy    <       0.00002921 Ry

     total magnetization       =     6.00 Bohr mag/cell
     absolute magnetization    =     7.13 Bohr mag/cell

     iteration # 10     ecut=   150.00 Ry     beta= 0.70
     Davidson diagonalization with overlap

---- Real-time Memory Report at c_bands before calling an iterative solver
           296 MiB given to the printing process from OS
             0 MiB allocation reported by mallinfo(arena+hblkhd)
        115319 MiB available memory on the node where the printing process lives
------------------
     ethr =  2.64E-08,  avg # of iterations =  2.0

     total cpu time spent up to now is      213.5 secs

     total energy              =    -512.08881292 Ry
     estimated scf accuracy    <       0.00000273 Ry

     total magnetization       =     6.00 Bohr mag/cell
     absolute magnetization    =     7.13 Bohr mag/cell

     iteration # 11     ecut=   150.00 Ry     beta= 0.70
     Davidson diagonalization with overlap

---- Real-time Memory Report at c_bands before calling an iterative solver
           296 MiB given to the printing process from OS
             0 MiB allocation reported by mallinfo(arena+hblkhd)
        115313 MiB available memory on the node where the printing process lives
------------------
     ethr =  3.90E-09,  avg # of iterations =  1.9

     total cpu time spent up to now is      226.5 secs

     total energy              =    -512.08881307 Ry
     estimated scf accuracy    <       0.00000036 Ry

     total magnetization       =     6.00 Bohr mag/cell
     absolute magnetization    =     7.13 Bohr mag/cell

     iteration # 12     ecut=   150.00 Ry     beta= 0.70
     Davidson diagonalization with overlap

---- Real-time Memory Report at c_bands before calling an iterative solver
           296 MiB given to the printing process from OS
             0 MiB allocation reported by mallinfo(arena+hblkhd)
        115314 MiB available memory on the node where the printing process lives
------------------
     ethr =  5.12E-10,  avg # of iterations =  3.6

     total cpu time spent up to now is      243.3 secs

     total energy              =    -512.08881318 Ry
     estimated scf accuracy    <       0.00000005 Ry

     total magnetization       =     6.00 Bohr mag/cell
     absolute magnetization    =     7.13 Bohr mag/cell

     iteration # 13     ecut=   150.00 Ry     beta= 0.70
     Davidson diagonalization with overlap

---- Real-time Memory Report at c_bands before calling an iterative solver
           296 MiB given to the printing process from OS
             0 MiB allocation reported by mallinfo(arena+hblkhd)
        115311 MiB available memory on the node where the printing process lives
------------------
     ethr =  6.92E-11,  avg # of iterations =  2.4

     total cpu time spent up to now is      257.0 secs

     total energy              =    -512.08881319 Ry
     estimated scf accuracy    <          5.4E-09 Ry

     total magnetization       =     6.00 Bohr mag/cell
     absolute magnetization    =     7.13 Bohr mag/cell

     iteration # 14     ecut=   150.00 Ry     beta= 0.70
     Davidson diagonalization with overlap

---- Real-time Memory Report at c_bands before calling an iterative solver
           296 MiB given to the printing process from OS
             0 MiB allocation reported by mallinfo(arena+hblkhd)
        115310 MiB available memory on the node where the printing process lives
------------------
     ethr =  7.65E-12,  avg # of iterations =  3.5

     total cpu time spent up to now is      273.4 secs

     total energy              =    -512.08881319 Ry
     estimated scf accuracy    <          9.0E-11 Ry

     total magnetization       =     6.00 Bohr mag/cell
     absolute magnetization    =     7.13 Bohr mag/cell

     iteration # 15     ecut=   150.00 Ry     beta= 0.70
     Davidson diagonalization with overlap

---- Real-time Memory Report at c_bands before calling an iterative solver
           296 MiB given to the printing process from OS
             0 MiB allocation reported by mallinfo(arena+hblkhd)
        115307 MiB available memory on the node where the printing process lives
------------------
     ethr =  1.29E-13,  avg # of iterations =  5.2

     total cpu time spent up to now is      294.1 secs

     total energy              =    -512.08881319 Ry
     estimated scf accuracy    <          4.6E-11 Ry

     total magnetization       =     6.00 Bohr mag/cell
     absolute magnetization    =     7.13 Bohr mag/cell

     iteration # 16     ecut=   150.00 Ry     beta= 0.70
     Davidson diagonalization with overlap

---- Real-time Memory Report at c_bands before calling an iterative solver
           296 MiB given to the printing process from OS
             0 MiB allocation reported by mallinfo(arena+hblkhd)
        115300 MiB available memory on the node where the printing process lives
------------------
     ethr =  1.00E-13,  avg # of iterations =  2.0

     total cpu time spent up to now is      307.5 secs

     total energy              =    -512.08881319 Ry
     estimated scf accuracy    <          2.3E-12 Ry

     total magnetization       =     6.00 Bohr mag/cell
     absolute magnetization    =     7.13 Bohr mag/cell

     iteration # 17     ecut=   150.00 Ry     beta= 0.70
     Davidson diagonalization with overlap

---- Real-time Memory Report at c_bands before calling an iterative solver
           296 MiB given to the printing process from OS
             0 MiB allocation reported by mallinfo(arena+hblkhd)
        115299 MiB available memory on the node where the printing process lives
------------------
     ethr =  1.00E-13,  avg # of iterations =  1.0

     total cpu time spent up to now is      319.2 secs

     total energy              =    -512.08881319 Ry
     estimated scf accuracy    <          2.7E-13 Ry

     total magnetization       =     6.00 Bohr mag/cell
     absolute magnetization    =     7.13 Bohr mag/cell

     iteration # 18     ecut=   150.00 Ry     beta= 0.70
     Davidson diagonalization with overlap

---- Real-time Memory Report at c_bands before calling an iterative solver
           296 MiB given to the printing process from OS
             0 MiB allocation reported by mallinfo(arena+hblkhd)
        115295 MiB available memory on the node where the printing process lives
------------------
     ethr =  1.00E-13,  avg # of iterations =  1.0
 
     Magnetic moment per site  (integrated on atomic sphere of radius R)
     atom   1 (R=0.164)  charge= 12.4364  magn=  2.9402
     atom   2 (R=0.164)  charge= 12.4364  magn=  2.9402
     atom   3 (R=0.164)  charge=  4.1209  magn= -0.0522
     atom   4 (R=0.164)  charge=  4.1209  magn= -0.0522
     atom   5 (R=0.164)  charge=  4.1209  magn= -0.0522
     atom   6 (R=0.164)  charge=  4.1209  magn= -0.0522
     atom   7 (R=0.164)  charge=  4.1209  magn= -0.0522
     atom   8 (R=0.164)  charge=  4.1209  magn= -0.0522

     total cpu time spent up to now is      330.8 secs

     End of self-consistent calculation

 ------ SPIN UP ------------


          k = 0.0000 0.0000 0.0000 (113155 PWs)   bands (ev):

   -77.4063 -77.4061 -49.1405 -49.1395 -49.1310 -49.1310 -49.1281 -49.1281
   -18.4876 -17.7429 -17.4393 -17.4393 -17.3452 -17.3452 -10.1009  -9.5993
    -9.0569  -9.0569  -9.0104  -9.0104  -8.6898  -8.2617  -8.2617  -8.2296
    -7.8281  -7.8281  -7.3842  -6.6895  -6.6895  -6.6538  -6.4589  -6.1669
    -6.1669  -6.1100  -6.0321  -6.0321  -5.6175  -5.6175  -4.4434  -4.4434
    -4.0113  -4.0113

     occupation numbers 
     1.0000   1.0000   1.0000   1.0000   1.0000   1.0000   1.0000   1.0000
     1.0000   1.0000   1.0000   1.0000   1.0000   1.0000   1.0000   1.0000
     1.0000   1.0000   1.0000   1.0000   1.0000   1.0000   1.0000   1.0000
     1.0000   1.0000   1.0000   1.0000   1.0000   1.0000   1.0000   1.0000
     1.0000   1.0000   1.0000   1.0000   1.0000   1.0000   0.0000   0.0000
     0.0000   0.0000

          k = 0.0000 0.1443 0.0000 (113056 PWs)   bands (ev):

   -77.4063 -77.4061 -49.1405 -49.1395 -49.1310 -49.1309 -49.1282 -49.1281
   -18.4545 -17.7242 -17.4856 -17.4578 -17.3490 -17.3477 -10.0997  -9.5928
    -9.0846  -9.0712  -9.0557  -8.9441  -8.5920  -8.3092  -8.2699  -8.0504
    -7.8407  -7.7501  -7.3501  -6.8342  -6.7927  -6.5056  -6.4693  -6.3504
    -6.2254  -6.0663  -6.0015  -6.0003  -5.6719  -5.5932  -4.4405  -4.4250
    -4.1375  -4.0378

     occupation numbers 
     1.0000   1.0000   1.0000   1.0000   1.0000   1.0000   1.0000   1.0000
     1.0000   1.0000   1.0000   1.0000   1.0000   1.0000   1.0000   1.0000
     1.0000   1.0000   1.0000   1.0000   1.0000   1.0000   1.0000   1.0000
     1.0000   1.0000   1.0000   1.0000   1.0000   1.0000   1.0000   1.0000
     1.0000   1.0000   1.0000   1.0000   1.0000   1.0000   0.0000   0.0000
     0.0000   0.0000

          k = 0.0000 0.2887 0.0000 (113106 PWs)   bands (ev):

   -77.4063 -77.4061 -49.1404 -49.1396 -49.1311 -49.1307 -49.1284 -49.1280
   -18.3594 -17.6715 -17.6071 -17.4947 -17.3692 -17.3634 -10.0852  -9.5696
    -9.1609  -9.1034  -9.0357  -8.7102  -8.4858  -8.3599  -8.2921  -7.8913
    -7.6777  -7.5680  -7.3379  -7.0089  -6.9693  -6.8250  -6.3663  -6.3498
    -6.2862  -6.0397  -5.9912  -5.9854  -5.7454  -5.5708  -4.4321  -4.3790
    -4.3056  -4.1255

     occupation numbers 
     1.0000   1.0000   1.0000   1.0000   1.0000   1.0000   1.0000   1.0000
     1.0000   1.0000   1.0000   1.0000   1.0000   1.0000   1.0000   1.0000
     1.0000   1.0000   1.0000   1.0000   1.0000   1.0000   1.0000   1.0000
     1.0000   1.0000   1.0000   1.0000   1.0000   1.0000   1.0000   1.0000
     1.0000   1.0000   1.0000   1.0000   1.0000   1.0000   0.0000   0.0000
     0.0000   0.0000

          k = 0.0000 0.4330 0.0000 (113098 PWs)   bands (ev):

   -77.4062 -77.4061 -49.1402 -49.1398 -49.1312 -49.1304 -49.1287 -49.1279
   -18.2193 -17.7714 -17.5961 -17.5257 -17.4196 -17.3801 -10.0802  -9.4894
    -9.2239  -9.0504  -8.8692  -8.6366  -8.5663  -8.2833  -8.1669  -7.9667
    -7.6600  -7.4989  -7.4146  -7.1435  -6.9435  -6.8693  -6.4247  -6.3599
    -6.2738  -6.0306  -6.0097  -5.9556  -5.7920  -5.5805  -4.4140  -4.3503
    -4.2802  -4.2489

     occupation numbers 
     1.0000   1.0000   1.0000   1.0000   1.0000   1.0000   1.0000   1.0000
     1.0000   1.0000   1.0000   1.0000   1.0000   1.0000   1.0000   1.0000
     1.0000   1.0000   1.0000   1.0000   1.0000   1.0000   1.0000   1.0000
     1.0000   1.0000   1.0000   1.0000   1.0000   1.0000   1.0000   1.0000
     1.0000   1.0000   1.0000   1.0000   1.0000   1.0000   0.0000   0.0000
     0.0000   0.0000

          k = 0.0000-0.5774 0.0000 (113154 PWs)   bands (ev):

   -77.4062 -77.4061 -49.1402 -49.1398 -49.1312 -49.1302 -49.1289 -49.1279
   -18.1125 -17.8879 -17.5374 -17.5346 -17.4719 -17.3872 -10.0853  -9.4265
    -9.2476  -8.9768  -8.7509  -8.6891  -8.5891  -8.2343  -8.0852  -8.0172
    -7.8566  -7.6548  -7.3779  -7.0054  -6.8437  -6.8085  -6.4869  -6.4431
    -6.2898  -6.0584  -6.0037  -5.8906  -5.8105  -5.5974  -4.3818  -4.3530
    -4.3320  -4.2065

     occupation numbers 
     1.0000   1.0000   1.0000   1.0000   1.0000   1.0000   1.0000   1.0000
     1.0000   1.0000   1.0000   1.0000   1.0000   1.0000   1.0000   1.0000
     1.0000   1.0000   1.0000   1.0000   1.0000   1.0000   1.0000   1.0000
     1.0000   1.0000   1.0000   1.0000   1.0000   1.0000   1.0000   1.0000
     1.0000   1.0000   1.0000   1.0000   1.0000   1.0000   0.0000   0.0000
     0.0000   0.0000

          k = 0.1250 0.2165 0.0000 (113125 PWs)   bands (ev):

   -77.4063 -77.4061 -49.1404 -49.1396 -49.1311 -49.1307 -49.1284 -49.1280
   -18.3903 -17.6885 -17.5606 -17.4953 -17.3617 -17.3555 -10.0800  -9.5884
    -9.1320  -9.1318  -9.0464  -8.7665  -8.4654  -8.4113  -8.2567  -7.8806
    -7.7738  -7.6287  -7.3460  -6.9759  -6.8850  -6.6533  -6.5047  -6.3857
    -6.2253  -6.0357  -6.0208  -5.9552  -5.7252  -5.5713  -4.4471  -4.3876
    -4.2912  -4.0692

     occupation numbers 
     1.0000   1.0000   1.0000   1.0000   1.0000   1.0000   1.0000   1.0000
     1.0000   1.0000   1.0000   1.0000   1.0000   1.0000   1.0000   1.0000
     1.0000   1.0000   1.0000   1.0000   1.0000   1.0000   1.0000   1.0000
     1.0000   1.0000   1.0000   1.0000   1.0000   1.0000   1.0000   1.0000
     1.0000   1.0000   1.0000   1.0000   1.0000   1.0000   0.0000   0.0000
     0.0000   0.0000

          k = 0.1250 0.3608 0.0000 (113091 PWs)   bands (ev):

   -77.4062 -77.4061 -49.1403 -49.1397 -49.1312 -49.1305 -49.1286 -49.1279
   -18.2712 -17.6942 -17.6243 -17.5420 -17.3948 -17.3722 -10.0308  -9.5633
    -9.1790  -9.1244  -8.9613  -8.5897  -8.5827  -8.3546  -8.1224  -7.9366
    -7.6647  -7.4876  -7.3865  -7.0618  -6.9787  -6.8534  -6.5606  -6.3498
    -6.2277  -6.0481  -5.9841  -5.9224  -5.7776  -5.5739  -4.4446  -4.3614
    -4.3178  -4.1382

     occupation numbers 
     1.0000   1.0000   1.0000   1.0000   1.0000   1.0000   1.0000   1.0000
     1.0000   1.0000   1.0000   1.0000   1.0000   1.0000   1.0000   1.0000
     1.0000   1.0000   1.0000   1.0000   1.0000   1.0000   1.0000   1.0000
     1.0000   1.0000   1.0000   1.0000   1.0000   1.0000   1.0000   1.0000
     1.0000   1.0000   1.0000   1.0000   1.0000   1.0000   0.0000   0.0000
     0.0000   0.0000

          k = 0.1250 0.5052 0.0000 (113125 PWs)   bands (ev):

   -77.4062 -77.4061 -49.1402 -49.1398 -49.1312 -49.1302 -49.1289 -49.1279
   -18.1275 -17.8503 -17.5696 -17.5484 -17.4502 -17.3862 -10.0070  -9.4763
    -9.2129  -9.0426  -8.7822  -8.7496  -8.5713  -8.3031  -8.1802  -7.8906
    -7.8231  -7.4444  -7.3918  -7.0898  -6.8631  -6.7948  -6.5951  -6.4793
    -6.2551  -6.0382  -5.9541  -5.8688  -5.8102  -5.6010  -4.3756  -4.3704
    -4.2775  -4.1842

     occupation numbers 
     1.0000   1.0000   1.0000   1.0000   1.0000   1.0000   1.0000   1.0000
     1.0000   1.0000   1.0000   1.0000   1.0000   1.0000   1.0000   1.0000
     1.0000   1.0000   1.0000   1.0000   1.0000   1.0000   1.0000   1.0000
     1.0000   1.0000   1.0000   1.0000   1.0000   1.0000   1.0000   1.0000
     1.0000   1.0000   1.0000   1.0000   1.0000   1.0000   0.0000   0.0000
     0.0000   0.0000

          k = 0.2500 0.4330 0.0000 (113079 PWs)   bands (ev):

   -77.4062 -77.4061 -49.1402 -49.1398 -49.1313 -49.1301 -49.1290 -49.1278
   -18.1400 -17.8078 -17.6079 -17.5581 -17.4292 -17.3899  -9.8881  -9.5743
    -9.1535  -9.1286  -8.8432  -8.7768  -8.5625  -8.3169  -8.1947  -7.8951
    -7.7507  -7.4259  -7.2692  -7.0012  -6.9500  -6.8914  -6.6514  -6.5202
    -6.2318  -6.0324  -5.8809  -5.8715  -5.8012  -5.6059  -4.3879  -4.3729
    -4.2596  -4.1215

     occupation numbers 
     1.0000   1.0000   1.0000   1.0000   1.0000   1.0000   1.0000   1.0000
     1.0000   1.0000   1.0000   1.0000   1.0000   1.0000   1.0000   1.0000
     1.0000   1.0000   1.0000   1.0000   1.0000   1.0000   1.0000   1.0000
     1.0000   1.0000   1.0000   1.0000   1.0000   1.0000   1.0000   1.0000
     1.0000   1.0000   1.0000   1.0000   1.0000   1.0000   0.0000   0.0000
     0.0000   0.0000

          k = 0.2500 0.5774 0.0000 (113128 PWs)   bands (ev):

   -77.4062 -77.4062 -49.1401 -49.1399 -49.1313 -49.1298 -49.1293 -49.1278
   -18.0273 -17.9129 -17.6350 -17.5034 -17.4678 -17.4009  -9.8022  -9.5565
    -9.1628  -9.0650  -8.9496  -8.6560  -8.6158  -8.4544  -8.2892  -7.9308
    -7.4569  -7.3956  -7.2526  -7.2122  -6.9439  -6.7497  -6.6841  -6.6032
    -6.2458  -6.0216  -5.8792  -5.8389  -5.7542  -5.6480  -4.3871  -4.3004
    -4.2723  -4.0915

     occupation numbers 
     1.0000   1.0000   1.0000   1.0000   1.0000   1.0000   1.0000   1.0000
     1.0000   1.0000   1.0000   1.0000   1.0000   1.0000   1.0000   1.0000
     1.0000   1.0000   1.0000   1.0000   1.0000   1.0000   1.0000   1.0000
     1.0000   1.0000   1.0000   1.0000   1.0000   1.0000   1.0000   1.0000
     1.0000   1.0000   1.0000   1.0000   1.0000   1.0000   0.0000   0.0000
     0.0000   0.0000

 ------ SPIN DOWN ----------


          k = 0.0000 0.0000 0.0000 (113155 PWs)   bands (ev):

   -74.4672 -74.4669 -46.2199 -46.2186 -46.1900 -46.1900 -46.1862 -46.1862
   -18.4713 -17.7632 -17.4558 -17.4558 -17.3622 -17.3622  -9.8467  -9.3827
    -8.8941  -8.8941  -8.7450  -8.7450  -8.6105  -8.0357  -7.6350  -7.6350
    -7.3458  -7.3458  -7.3457  -6.6625  -6.3116  -6.3116  -5.7745  -5.7745
    -3.7958  -3.7866  -3.7866  -3.7093  -3.4517  -3.4517  -2.9131  -2.9131
    -2.6415  -2.6415

     occupation numbers 
     1.0000   1.0000   1.0000   1.0000   1.0000   1.0000   1.0000   1.0000
     1.0000   1.0000   1.0000   1.0000   1.0000   1.0000   1.0000   1.0000
     1.0000   1.0000   1.0000   1.0000   1.0000   1.0000   1.0000   1.0000
     1.0000   1.0000   1.0000   1.0000   1.0000   1.0000   1.0000   1.0000
     0.0000   0.0000   0.0000   0.0000   0.0000   0.0000   0.0000   0.0000
     0.0000   0.0000

          k = 0.0000 0.1443 0.0000 (113056 PWs)   bands (ev):

   -74.4672 -74.4669 -46.2199 -46.2186 -46.1901 -46.1899 -46.1864 -46.1862
   -18.4389 -17.7444 -17.5006 -17.4745 -17.3655 -17.3646  -9.8544  -9.3766
    -8.9232  -8.9126  -8.7996  -8.7643  -8.3520  -7.8392  -7.7190  -7.6627
    -7.3661  -7.3220  -7.2651  -6.6711  -6.3537  -6.3067  -6.0495  -5.8456
    -3.8455  -3.7412  -3.7171  -3.6501  -3.4721  -3.4650  -2.9188  -2.9096
    -2.7293  -2.6602

     occupation numbers 
     1.0000   1.0000   1.0000   1.0000   1.0000   1.0000   1.0000   1.0000
     1.0000   1.0000   1.0000   1.0000   1.0000   1.0000   1.0000   1.0000
     1.0000   1.0000   1.0000   1.0000   1.0000   1.0000   1.0000   1.0000
     1.0000   1.0000   1.0000   1.0000   1.0000   1.0000   1.0000   1.0000
     0.0000   0.0000   0.0000   0.0000   0.0000   0.0000   0.0000   0.0000
     0.0000   0.0000

          k = 0.0000 0.2887 0.0000 (113106 PWs)   bands (ev):

   -74.4672 -74.4670 -46.2197 -46.2187 -46.1902 -46.1896 -46.1867 -46.1861
   -18.3459 -17.6914 -17.6181 -17.5118 -17.3862 -17.3790  -9.8550  -9.3521
    -9.0534  -8.9291  -8.7819  -8.4956  -8.0027  -7.9349  -7.7361  -7.4281
    -7.4126  -7.2990  -7.0929  -6.7080  -6.6873  -6.3952  -6.2960  -5.9879
    -3.8773  -3.7646  -3.6528  -3.5372  -3.4996  -3.4656  -2.9376  -2.9254
    -2.8011  -2.7042

     occupation numbers 
     1.0000   1.0000   1.0000   1.0000   1.0000   1.0000   1.0000   1.0000
     1.0000   1.0000   1.0000   1.0000   1.0000   1.0000   1.0000   1.0000
     1.0000   1.0000   1.0000   1.0000   1.0000   1.0000   1.0000   1.0000
     1.0000   1.0000   1.0000   1.0000   1.0000   1.0000   1.0000   1.0000
     0.0000   0.0000   0.0000   0.0000   0.0000   0.0000   0.0000   0.0000
     0.0000   0.0000

          k = 0.0000 0.4330 0.0000 (113098 PWs)   bands (ev):

   -74.4671 -74.4670 -46.2196 -46.2189 -46.1903 -46.1892 -46.1870 -46.1860
   -18.2087 -17.7773 -17.6156 -17.5431 -17.4369 -17.3948  -9.8598  -9.2700
    -9.1379  -8.8196  -8.6241  -8.2758  -8.2470  -7.7793  -7.6621  -7.4956
    -7.3281  -7.3056  -7.0007  -6.9607  -6.7606  -6.4893  -6.2964  -6.0355
    -3.9190  -3.8896  -3.6295  -3.5135  -3.5029  -3.4004  -2.9684  -2.8888
    -2.7852  -2.7378

     occupation numbers 
     1.0000   1.0000   1.0000   1.0000   1.0000   1.0000   1.0000   1.0000
     1.0000   1.0000   1.0000   1.0000   1.0000   1.0000   1.0000   1.0000
     1.0000   1.0000   1.0000   1.0000   1.0000   1.0000   1.0000   1.0000
     1.0000   1.0000   1.0000   1.0000   1.0000   1.0000   1.0000   1.0000
     0.0000   0.0000   0.0000   0.0000   0.0000   0.0000   0.0000   0.0000
     0.0000   0.0000

          k = 0.0000-0.5774 0.0000 (113154 PWs)   bands (ev):

   -74.4671 -74.4670 -46.2195 -46.2190 -46.1903 -46.1890 -46.1872 -46.1860
   -18.1033 -17.8917 -17.5551 -17.5543 -17.4890 -17.4016  -9.8674  -9.2070
    -9.1679  -8.6302  -8.5114  -8.4955  -8.1546  -7.8594  -7.6660  -7.4802
    -7.4795  -7.3133  -7.0123  -6.7848  -6.7390  -6.5518  -6.3411  -5.9989
    -3.9642  -3.9408  -3.6391  -3.5137  -3.4914  -3.3765  -2.9845  -2.8624
    -2.7473  -2.7462

     occupation numbers 
     1.0000   1.0000   1.0000   1.0000   1.0000   1.0000   1.0000   1.0000
     1.0000   1.0000   1.0000   1.0000   1.0000   1.0000   1.0000   1.0000
     1.0000   1.0000   1.0000   1.0000   1.0000   1.0000   1.0000   1.0000
     1.0000   1.0000   1.0000   1.0000   1.0000   1.0000   1.0000   1.0000
     0.0000   0.0000   0.0000   0.0000   0.0000   0.0000   0.0000   0.0000
     0.0000   0.0000

          k = 0.1250 0.2165 0.0000 (113125 PWs)   bands (ev):

   -74.4672 -74.4670 -46.2198 -46.2187 -46.1902 -46.1897 -46.1866 -46.1861
   -18.3761 -17.7085 -17.5727 -17.5122 -17.3785 -17.3716  -9.8454  -9.3722
    -9.0038  -8.9644  -8.8066  -8.5589  -8.0891  -7.8778  -7.6998  -7.5467
    -7.4374  -7.2597  -7.1572  -6.7326  -6.4295  -6.4045  -6.2897  -5.9705
    -3.8360  -3.7944  -3.6348  -3.5826  -3.4814  -3.4805  -2.9634  -2.8848
    -2.7977  -2.6852

     occupation numbers 
     1.0000   1.0000   1.0000   1.0000   1.0000   1.0000   1.0000   1.0000
     1.0000   1.0000   1.0000   1.0000   1.0000   1.0000   1.0000   1.0000
     1.0000   1.0000   1.0000   1.0000   1.0000   1.0000   1.0000   1.0000
     1.0000   1.0000   1.0000   1.0000   1.0000   1.0000   1.0000   1.0000
     0.0000   0.0000   0.0000   0.0000   0.0000   0.0000   0.0000   0.0000
     0.0000   0.0000

          k = 0.1250 0.3608 0.0000 (113091 PWs)   bands (ev):

   -74.4671 -74.4670 -46.2196 -46.2189 -46.1903 -46.1893 -46.1870 -46.1860
   -18.2596 -17.7017 -17.6440 -17.5590 -17.4120 -17.3877  -9.8070  -9.3448
    -9.0695  -8.9427  -8.7158  -8.3139  -8.1540  -7.7714  -7.7138  -7.5378
    -7.2472  -7.2162  -7.1515  -6.9574  -6.5977  -6.4484  -6.2948  -6.1027
    -3.8804  -3.8386  -3.6425  -3.5671  -3.4614  -3.4347  -2.9779  -2.8550
    -2.8053  -2.7211

     occupation numbers 
     1.0000   1.0000   1.0000   1.0000   1.0000   1.0000   1.0000   1.0000
     1.0000   1.0000   1.0000   1.0000   1.0000   1.0000   1.0000   1.0000
     1.0000   1.0000   1.0000   1.0000   1.0000   1.0000   1.0000   1.0000
     1.0000   1.0000   1.0000   1.0000   1.0000   1.0000   1.0000   1.0000
     0.0000   0.0000   0.0000   0.0000   0.0000   0.0000   0.0000   0.0000
     0.0000   0.0000

          k = 0.1250 0.5052 0.0000 (113125 PWs)   bands (ev):

   -74.4671 -74.4670 -46.2195 -46.2190 -46.1903 -46.1889 -46.1873 -46.1859
   -18.1188 -17.8536 -17.5865 -17.5678 -17.4677 -17.4013  -9.7889  -9.2575
    -9.1144  -8.7848  -8.5385  -8.4696  -8.2099  -7.8534  -7.6669  -7.5388
    -7.4177  -7.2301  -6.9056  -6.8403  -6.7203  -6.5279  -6.3082  -6.0753
    -3.9368  -3.9197  -3.6359  -3.5990  -3.4435  -3.3905  -2.9395  -2.8511
    -2.7542  -2.7435

     occupation numbers 
     1.0000   1.0000   1.0000   1.0000   1.0000   1.0000   1.0000   1.0000
     1.0000   1.0000   1.0000   1.0000   1.0000   1.0000   1.0000   1.0000
     1.0000   1.0000   1.0000   1.0000   1.0000   1.0000   1.0000   1.0000
     1.0000   1.0000   1.0000   1.0000   1.0000   1.0000   1.0000   1.0000
     0.0000   0.0000   0.0000   0.0000   0.0000   0.0000   0.0000   0.0000
     0.0000   0.0000

          k = 0.2500 0.4330 0.0000 (113079 PWs)   bands (ev):

   -74.4671 -74.4670 -46.2195 -46.2190 -46.1904 -46.1888 -46.1874 -46.1859
   -18.1315 -17.8101 -17.6248 -17.5774 -17.4469 -17.4055  -9.6694  -9.3555
    -8.9939  -8.9666  -8.5896  -8.4653  -8.2205  -7.8468  -7.6794  -7.5791
    -7.3785  -7.1301  -6.9975  -6.7860  -6.5650  -6.5324  -6.2584  -6.2214
    -3.9310  -3.8469  -3.7082  -3.6079  -3.4209  -3.4110  -2.9143  -2.8180
    -2.7591  -2.7400

     occupation numbers 
     1.0000   1.0000   1.0000   1.0000   1.0000   1.0000   1.0000   1.0000
     1.0000   1.0000   1.0000   1.0000   1.0000   1.0000   1.0000   1.0000
     1.0000   1.0000   1.0000   1.0000   1.0000   1.0000   1.0000   1.0000
     1.0000   1.0000   1.0000   1.0000   1.0000   1.0000   1.0000   1.0000
     0.0000   0.0000   0.0000   0.0000   0.0000   0.0000   0.0000   0.0000
     0.0000   0.0000

          k = 0.2500 0.5774 0.0000 (113128 PWs)   bands (ev):

   -74.4671 -74.4670 -46.2193 -46.2191 -46.1904 -46.1885 -46.1878 -46.1858
   -18.0212 -17.9120 -17.6519 -17.5225 -17.4859 -17.4163  -9.5856  -9.3402
    -8.9952  -8.8165  -8.7663  -8.4165  -8.2236  -8.1362  -7.6433  -7.6312
    -7.1558  -7.1048  -6.9599  -6.7024  -6.6151  -6.5815  -6.2715  -6.1996
    -3.9228  -3.8969  -3.7303  -3.6284  -3.4104  -3.3996  -2.8375  -2.8356
    -2.7674  -2.7016

     occupation numbers 
     1.0000   1.0000   1.0000   1.0000   1.0000   1.0000   1.0000   1.0000
     1.0000   1.0000   1.0000   1.0000   1.0000   1.0000   1.0000   1.0000
     1.0000   1.0000   1.0000   1.0000   1.0000   1.0000   1.0000   1.0000
     1.0000   1.0000   1.0000   1.0000   1.0000   1.0000   1.0000   1.0000
     0.0000   0.0000   0.0000   0.0000   0.0000   0.0000   0.0000   0.0000
     0.0000   0.0000

     the Fermi energy is    -4.9348 ev

!    total energy              =    -512.08881319 Ry
     estimated scf accuracy    <          3.5E-14 Ry
     smearing contrib. (-TS)   =      -0.00000000 Ry
     internal energy E=F+TS    =    -512.08881319 Ry

     The total energy is F=E-TS. E is the sum of the following terms:
     one-electron contribution =   -1703.12273596 Ry
     hartree contribution      =     845.80956186 Ry
     xc contribution           =     -99.95672949 Ry
     ewald contribution        =     445.18109040 Ry

     total magnetization       =     6.00 Bohr mag/cell
     absolute magnetization    =     7.13 Bohr mag/cell

     convergence has been achieved in  18 iterations

     Writing all to output data dir ./cri3_150Ry.save/
 
     init_run     :      5.84s CPU      6.05s WALL (       1 calls)
     electrons    :    317.84s CPU    324.62s WALL (       1 calls)

     Called by init_run:
     wfcinit      :      4.44s CPU      4.58s WALL (       1 calls)
     wfcinit:atom :      0.09s CPU      0.10s WALL (      20 calls)
     wfcinit:wfcr :      3.99s CPU      4.12s WALL (      20 calls)
     potinit      :      0.36s CPU      0.38s WALL (       1 calls)
     hinit0       :      0.62s CPU      0.65s WALL (       1 calls)

     Called by electrons:
     c_bands      :    275.27s CPU    281.17s WALL (      18 calls)
     sum_band     :     40.54s CPU     41.22s WALL (      18 calls)
     v_of_rho     :      0.53s CPU      0.53s WALL (      19 calls)
     v_h          :      0.16s CPU      0.16s WALL (      19 calls)
     v_xc         :      0.37s CPU      0.37s WALL (      19 calls)
     mix_rho      :      1.33s CPU      1.36s WALL (      18 calls)

     Called by c_bands:
     init_us_2    :      5.15s CPU      5.20s WALL (     740 calls)
     init_us_2:cp :      5.14s CPU      5.19s WALL (     740 calls)
     cegterg      :    250.10s CPU    254.87s WALL (     366 calls)

     Called by sum_band:
     sum_band:wei :      0.00s CPU      0.00s WALL (      18 calls)
     sum_band:loo :     39.96s CPU     40.62s WALL (      18 calls)
     sum_band:buf :      0.95s CPU      0.96s WALL (     360 calls)
     sum_band:ini :      2.52s CPU      2.53s WALL (     360 calls)

     Called by *egterg:
     cdiaghg      :      5.65s CPU      6.35s WALL (    2050 calls)
     cegterg:over :     14.35s CPU     14.44s WALL (    1690 calls)
     cegterg:upda :     18.61s CPU     18.86s WALL (    1690 calls)
     cegterg:last :     19.25s CPU     19.37s WALL (     951 calls)
     cdiaghg:chol :      0.42s CPU      0.43s WALL (    2050 calls)
     cdiaghg:inve :      0.17s CPU      0.17s WALL (    2050 calls)
     cdiaghg:para :      0.40s CPU      0.42s WALL (    4100 calls)
     h_psi        :    183.77s CPU    187.34s WALL (    2076 calls)
     g_psi        :      1.13s CPU      1.14s WALL (    1690 calls)

     Called by h_psi:
     h_psi:calbec :     12.02s CPU     12.12s WALL (    2076 calls)
     vloc_psi     :    155.64s CPU    158.89s WALL (    2076 calls)
     add_vuspsi   :     13.35s CPU     13.41s WALL (    2076 calls)

     General routines
     calbec       :     12.01s CPU     12.11s WALL (    2076 calls)
     fft          :      0.42s CPU      0.44s WALL (      93 calls)
     ffts         :      0.14s CPU      0.15s WALL (      36 calls)
     fftw         :    138.77s CPU    141.63s WALL (  111606 calls)
 
     Parallel routines
 
     PWSCF        :   5m24.51s CPU   5m39.28s WALL

 
   This run was terminated on:  14:57:48  10Jan2024            

=------------------------------------------------------------------------------=
   JOB DONE.
=------------------------------------------------------------------------------=
